SystemName     Si001 + H2                                                                      
SystemLabel     Si001+H2                                                                        
SpinPolarized              F
NonCollinearSpin              F     # default value
SpinOrbit              F     # default value
#:defined? SpinPolarized              T
#**Warning: FDF symbol 'SpinPolarized' is deprecated.
#:block? Spin              F
#:defined? Spin              F
#           FDF symbol 'Spin' replaces 'SpinPolarized'.
#:block? NonCollinearSpin              F
#:defined? NonCollinearSpin              F
#:block? SpinOrbit              F
#:defined? SpinOrbit              F
Spin     none                                 # default value
TimeReversalSymmetry              T     # default value
DebugObjects.Node         0     # default value
DebugObjects              F     # default value
XML.Write              F     # default value
timer_report_threshold          0.000000000         # default value
UseParallelTimer              T     # default value
UseTreeTimer              F     # default value
timing-split-scf-steps              F     # default value
use-walltime              F     # default value
alloc_report_level         0     # default value
alloc_report_threshold          0.000000000         # default value
xc.functional     GGA                                                                             
xc.authors     PBE                                                                             
MM.Cutoff          30.00000000     Bohr     # default value
MM.UnitsEnergy     eV     # default value
MM.UnitsDistance     Ang     # default value
WriteIonPlotFiles              F     # default value
Atom.Debug.KB.Generation              F     # default value
KB.New.Reference.Orbitals              F     # default value
user-basis              F     # default value
user-basis-netcdf              F     # default value
#:block? DFTU.proj              F
#:defined? DFTU.proj              F
#:block? LDAU.proj              F
#:defined? LDAU.proj              F
Number_of_species              2
%block Chemical_species_label
   1   1  H
   2  14  Si
%endblock Chemical_species_label
ReparametrizePseudos              F     # default value
Restricted.Radial.Grid              T     # default value
Rmax.Radial.Grid          0.000000000         # default value
PAO.BasisSize     SZ                                                                              
PAO.BasisType     split                                                                           
PAO.SoftDefault              F     # default value
PAO.SoftInnerRadius         0.9000000000         # default value
PAO.SoftPotential          40.00000000         # default value
PAO.SplitNorm         0.1500000000         # default value
PAO.SplitNormH         -1.000000000         # default value
%block AtomicMass
  1  2.013
%endblock AtomicMass
PAO.Polarization.NonPerturbative              F     # default value
PAO.NonPerturbative.Polarization.Orbitals              F     # default value
LDAU.ProjectorGenerationMethod         2     # default value
DFTU.ProjectorGenerationMethod         2     # default value
LDAU.EnergyShift         0.5000000000E-01 Ry     # default value
DFTU.EnergyShift         0.5000000000E-01 Ry     # default value
LDAU.CutoffNorm         0.9000000000         # default value
DFTU.CutoffNorm         0.9000000000         # default value
PAO.SoftDefault              F     # default value
PAO.SoftInnerRadius         0.9000000000         # default value
PAO.SoftPotential          40.00000000         # default value
LDAU.ThresholdTol         0.1000000000E-01     # default value
DFTU.ThresholdTol         0.1000000000E-01     # default value
LDAU.PopTol         0.1000000000E-02     # default value
DFTU.PopTol         0.1000000000E-02     # default value
LDAU.PotentialShift              F     # default value
DFTU.PotentialShift              F     # default value
LDAU.FirstIteration              F     # default value
DFTU.FirstIteration              F     # default value
FilterCutoff          0.000000000     Ry     # default value
FilterTol          0.000000000     Ry     # default value
keep-npotu-bug              F     # default value
spin-orbit-strength          1.000000000         # default value
PSML.KB.Projectors              F     # default value
PSML.Vlocal              F     # default value
Use.PSML.KB.Projectors              F     # default value
Use.PSML.Vlocal              F     # default value
vlocal-from-chlocal              F     # default value
Rmax.PS.Check          118.5078359     Bohr     # default value
Vlocal.Fit.3derivs              F     # default value
use-charge-cutoff-for-large-core              F     # default value
Atom.Ignore.Ghosts              F     # default value
KB.Rmax          0.000000000     Bohr     # default value
PAO.EnergyShift         0.1837449711E-01         Ry
# above item originally: PAO.EnergyShift         0.2500000000     eV        
PAO.SplitTailNorm              F     # default value
PAO.FixSplitTable              T     # label by itself
PAO.Filter              F     # default value
PAO.OldStylePolorbs              T     # default value
PAO.SplitTailNorm              F     # default value
PAO.FixSplitTable              T     # label by itself
Vna.Filter              F     # default value
FilterCutoff          0.000000000     Ry     # default value
FilterTol          0.000000000     Ry     # default value
keep-npotu-bug              F     # default value
spin-orbit-strength          1.000000000         # default value
PSML.KB.Projectors              F     # default value
PSML.Vlocal              F     # default value
Use.PSML.KB.Projectors              F     # default value
Use.PSML.Vlocal              F     # default value
vlocal-from-chlocal              F     # default value
Rmax.PS.Check          119.8140782     Bohr     # default value
Vlocal.Fit.3derivs              F     # default value
use-charge-cutoff-for-large-core              F     # default value
Atom.Ignore.Ghosts              F     # default value
KB.Rmax          0.000000000     Bohr     # default value
PAO.EnergyShift         0.1837449711E-01         Ry
# above item originally: PAO.EnergyShift         0.2500000000     eV        
PAO.SplitTailNorm              F     # default value
PAO.FixSplitTable              T     # label by itself
PAO.Filter              F     # default value
PAO.Filter              F     # default value
PAO.OldStylePolorbs              T     # default value
PAO.SplitTailNorm              F     # default value
PAO.FixSplitTable              T     # label by itself
Vna.Filter              F     # default value
PCC.Filter              F     # default value
PAO.BasisType     split                                                                           
Atom-Setup-Only              F     # default value
UseStructFile              F     # default value
MD.UseStructFile              F     # default value
LatticeConstant          3.620471033           Bohr
# above item originally: LatticeConstant          1.915870000     Ang       
#:block? LatticeParameters              F
%block LatticeVectors
  4.0     0.0     0.0
  0.0     4.0     0.0
  0.0     0.0     8.0
%endblock LatticeVectors
AtomicCoordinatesFormat     Bohr                                                                            
NumberOfAtoms             38
#:block? AtomicCoordinatesOrigin              F
#:defined? AtomicCoordinatesOrigin              F
ZM.UnitsLength     Bohr           # default value
ZM.UnitsAngle     rad            # default value
ZM.ForceTolLength         0.1555740000E-02 Ry/Bohr     # default value
ZM.ForceTolAngle         0.3565490000E-02 Ry/rad     # default value
ZM.MaxDisplLength         0.2000000000     Bohr     # default value
ZM.MaxDisplAngle         0.3000000000E-02 rad     # default value
ZM.CalcAllForces              F     # default value
%block AtomicCoordinatesAndAtomicSpecies
       11.449096152       3.620202345      -8.313070747        1  H
       13.106542549       3.621016654      -8.325506604        1  H
        9.548438948       3.618923362     -16.541210979        2  Si
       13.817205862       3.620847822     -15.309180773        2  Si
        9.528270466      10.866602791     -16.580589107        2  Si
       13.790382977      10.846154693     -15.308839631        2  Si
        7.406101538      -0.000108928     -18.056395328        2  Si
       14.268039181      -0.000697920     -17.990731589        2  Si
        7.400674278       7.240493241     -18.092233975        2  Si
       14.268278001       7.238006697     -17.983063045        2  Si
        3.571414424      -0.000007639     -20.399498936        2  Si
       10.883283639      -0.000633692     -20.931428915        2  Si
        3.573258284       7.243442738     -20.425789208        2  Si
       10.889439123       7.235737400     -20.912814093        2  Si
        3.622183349       3.623006627     -23.077357499        2  Si
       10.864199345       3.618406638     -23.384919566        2  Si
        3.620283904      10.861372263     -23.080457914        2  Si
       10.865877628      10.862592010     -23.385099171        2  Si
        7.238876595       3.619448691     -25.736778053        2  Si
       14.477753190       3.619448691     -25.736778053        2  Si
        7.238012990      10.856486582     -25.737501819        2  Si
       14.482369793      10.860400206     -25.737284500        2  Si
        7.238876595       0.000000000     -28.310480236        2  Si
       14.477753190       0.000000000     -28.310480236        2  Si
        7.236705299       7.237017104     -28.310807159        2  Si
       14.474107907       7.237017104     -28.310778813        2  Si
        3.619448691       0.000000000     -30.884157853        2  Si
       10.858325286       0.000000000     -30.884157853        2  Si
        3.619424125       7.237026553     -30.883126062        2  Si
       10.866139307       7.237026553     -30.883137400        2  Si
        3.619535619       2.027521982     -32.725963147        1  H
        3.619537508      -2.027482298     -32.725980154        1  H
       10.858183557       2.026529876     -32.729474259        1  H
       10.858183557      -2.026503419     -32.729461031        1  H
        3.619509162       9.284967034     -32.733493708        1  H
        3.621468809       5.196956784     -32.733510716        1  H
       10.866137417       9.275867999     -32.720738052        1  H
       10.862221903       5.200167430     -32.736386880        1  H
%endblock AtomicCoordinatesAndAtomicSpecies
MD.UseSaveXV              T
MD.UseSaveZM              F     # default value
WriteCoorInitial              T     # default value
MD.TypeOfRun     Annealing                                                                       
MD.TypeOfRun     Annealing                                                                       
MD.InitialTimeStep              1
MD.FinalTimeStep            100
MD.TypeOfRun     Annealing                                                                       
MaxBondDistance          6.000000000     Bohr     # default value
Output-Structure-Only              F     # default value
WriteCoorXmol              F     # default value
#:physical? MaxWalltime              F
MaxWalltime         0.1797693135+309     # default value
#:physical? MaxWalltime.Slack              F
MaxWalltime.Slack          5.000000000         # default value
HSetupOnly              F     # default value
LongOutput              F     # default value
WriteDenchar              F     # default value
WriteMullikenPop         0     # default value
WriteOrbMom              F     # default value
WriteHirshfeldPop              F     # default value
WriteVoronoiPop              F     # default value
PartialChargesAtEveryGeometry              F     # default value
PartialChargesAtEveryScfStep              F     # default value
MeshCutoff          50.00000000             Ry
# above item originally: MeshCutoff          50.00000000     Ry        
NetCharge          0.000000000         # default value
MinSCFIterations         0     # default value
MaxSCFIterations            300
SCF.MustConverge              T     # default value
#:block? TS.MixH              F
#:defined? TS.MixH              F
#:block? MixHamiltonian              F
