--------------------------------------------------------------------------
[[32644,1],0]: A high-performance Open MPI point-to-point messaging module
was unable to find any relevant network interfaces:

Module: OpenFabrics (openib)
  Host: qmobile

Another transport will be used instead, although this may result in
lower performance.

NOTE: You can disable this warning by setting the MCA parameter
btl_base_warn_component_unused to 0.
--------------------------------------------------------------------------
Siesta Version  : school--MaX-1.3.0-1
Architecture    : Master-template
Compiler version: GNU Fortran (Ubuntu 7.5.0-3ubuntu1~18.04) 7.5.0
Compiler flags  : mpif90 -O2
PP flags        : -DF2003  -DCDF  -DNCDF -DNCDF_4 -DSIESTA__FLOOK  -DMPI -DMPI_TIMING
Libraries       :  libncdf.a libfdict.a libfdict.a  -lnetcdff -lnetcdf  -L/usr/local/lib -lflookall -ldl -lscalapack-openmpi  -llapack -lblas
Directory       : /home/max/Downloads/Try20
PARALLEL version
NetCDF support
NetCDF-4 support
Lua support

* Running in serial mode with MPI
>> Start of run:  25-JUN-2024  17:04:25

                           ***********************       
                           *  WELCOME TO SIESTA  *       
                           ***********************       

reinit: Reading from standard input
reinit: Dumped input in INPUT_TMP.45173
************************** Dump of input data file ****************************
SystemName      Si001 + H2
SystemLabel     Si001+H2
# Species and atoms
NumberOfSpecies        2
NumberOfAtoms          38
%block ChemicalSpeciesLabel
  1   1  H
  2  14  Si
%endblock ChemicalSpeciesLabel
%block AtomicMass
 1  2.013
%endblock AtomicMass
# General Variables
MeshCutoff           50. Ry        # Mesh cutoff. real space mes
XC.functional GGA
XC.Authors  PBE
Spinpolarized .false.
SolutionMethod              diagon        # OrderN or Diagon
# SCF options
MaxSCFIterations      300           # Maximum number of SCF iter
DM.MixingWeight       0.25           # New DM amount for next SCF cycle
DM.Tolerance          1.d-4         # Tolerance in maximum difference
                                    # between input and output DM
DM.UseSaveDM          true          # to use continuation files
DM.MixSCF1            true
DM.NumberPulay         4
# MD options
MD.TypeofRun   Anneal
MD.InitialTimeStep  1
MD.FinalTimeStep   100
MD.LengthTimeStep  2.0 fs
MD.AnnealOption   Temperature
MD.TargetTemperature  300.0 K
MD.TauRelax  50.0 fs
MD.UseSaveXV   .true.
WriteMDhistory    .true.
%block GeometryConstraints
        position  from   19  to  38
%endblock GeometryConstraints
# Atomic coordinates
LatticeConstant         1.91587 Ang
%block LatticeVectors
 4.0     0.0     0.0
 0.0     4.0     0.0
 0.0     0.0     8.0
%endblock LatticeVectors
AtomicCoordinatesFormat    Bohr
%block AtomicCoordinatesAndAtomicSpecies
      11.449096152       3.620202345      -8.313070747        1  H
      13.106542549       3.621016654      -8.325506604        1  H
       9.548438948       3.618923362     -16.541210979        2  Si
      13.817205862       3.620847822     -15.309180773        2  Si
       9.528270466      10.866602791     -16.580589107        2  Si
      13.790382977      10.846154693     -15.308839631        2  Si
       7.406101538      -0.000108928     -18.056395328        2  Si
      14.268039181      -0.000697920     -17.990731589        2  Si
       7.400674278       7.240493241     -18.092233975        2  Si
      14.268278001       7.238006697     -17.983063045        2  Si
       3.571414424      -0.000007639     -20.399498936        2  Si
      10.883283639      -0.000633692     -20.931428915        2  Si
       3.573258284       7.243442738     -20.425789208        2  Si
      10.889439123       7.235737400     -20.912814093        2  Si
       3.622183349       3.623006627     -23.077357499        2  Si
      10.864199345       3.618406638     -23.384919566        2  Si
       3.620283904      10.861372263     -23.080457914        2  Si
      10.865877628      10.862592010     -23.385099171        2  Si
       7.238876595       3.619448691     -25.736778053        2  Si
      14.477753190       3.619448691     -25.736778053        2  Si
       7.238012990      10.856486582     -25.737501819        2  Si
      14.482369793      10.860400206     -25.737284500        2  Si
       7.238876595       0.000000000     -28.310480236        2  Si
      14.477753190       0.000000000     -28.310480236        2  Si
       7.236705299       7.237017104     -28.310807159        2  Si
      14.474107907       7.237017104     -28.310778813        2  Si
       3.619448691       0.000000000     -30.884157853        2  Si
      10.858325286       0.000000000     -30.884157853        2  Si
       3.619424125       7.237026553     -30.883126062        2  Si
      10.866139307       7.237026553     -30.883137400        2  Si
       3.619535619       2.027521982     -32.725963147        1  H
       3.619537508      -2.027482298     -32.725980154        1  H
      10.858183557       2.026529876     -32.729474259        1  H
      10.858183557      -2.026503419     -32.729461031        1  H
       3.619509162       9.284967034     -32.733493708        1  H
       3.621468809       5.196956784     -32.733510716        1  H
      10.866137417       9.275867999     -32.720738052        1  H
      10.862221903       5.200167430     -32.736386880        1  H
%endblock AtomicCoordinatesAndAtomicSpecies
# Basis set
PAO.BasisType    split
PAO.BasisSize    SZ
PAO.EnergyShift  0.25 eV
PAO.NewSplitCode
PAO.FixSplitTable
************************** End of input data file *****************************

reinit: -----------------------------------------------------------------------
reinit: System Name: Si001 + H2
reinit: -----------------------------------------------------------------------
reinit: System Label: Si001+H2
reinit: -----------------------------------------------------------------------

initatom: Reading input for the pseudopotentials and atomic orbitals ----------
Species number:   1 Atomic number:    1 Label: H
Species number:   2 Atomic number:   14 Label: Si


 ---- Processing specs for species: H
Ground state valence configuration:   1s01
Reading pseudopotential information in formatted form from H.psf

 ---- Processing specs for species: Si
Ground state valence configuration:   3s02  3p02
Reading pseudopotential information in formatted form from Si.psf
remass: Read atomic mass for species    1 as      2.01300

---- Pseudopotential check for  H

Pseudized shells:
1s( 1.00) rc: 1.25
2p( 0.00) rc: 1.25
3d( 0.00) rc: 1.25
4f( 0.00) rc: 1.25
Valence configuration for ps generation: (assumed as above)

---- Pseudopotential check for Si

Pseudized shells:
3s( 2.00) rc: 1.89
3p( 2.00) rc: 1.89
3d( 0.00) rc: 1.89
4f( 0.00) rc: 1.89
Valence configuration for ps generation: (assumed as above)
For H, standard SIESTA heuristics set lmxkb to 1
 (one more than the basis l, including polarization orbitals).
Use PS.lmax or PS.KBprojectors blocks to override.
For Si, standard SIESTA heuristics set lmxkb to 2
 (one more than the basis l, including polarization orbitals).
Use PS.lmax or PS.KBprojectors blocks to override.

<basis_specs>
===============================================================================
H                    Z=   1    Mass=  2.0130        Charge= 0.17977+309
Lmxo=0 Lmxkb= 1    BasisType=split      Semic=F
L=0  Nsemic=0  Cnfigmx=1
          i=1  nzeta=1  polorb=0  (1s)
            splnorm:   0.15000    
               vcte:    0.0000    
               rinn:    0.0000    
               qcoe:    0.0000    
               qyuk:    0.0000    
               qwid:   0.10000E-01
                rcs:    0.0000    
            lambdas:    1.0000    
-------------------------------------------------------------------------------
L=0  Nkbl=1  erefs: 0.17977+309
L=1  Nkbl=1  erefs: 0.17977+309
===============================================================================
</basis_specs>

atom: Called for H                     (Z =   1)

read_vps: Pseudopotential generation method:
read_vps: ATM3      Troullier-Martins                       
Valence charge in pseudo generation:    1.00000

xc_check: Exchange-correlation functional:
xc_check: GGA Perdew, Burke & Ernzerhof 1996
V l=0 = -2*Zval/r beyond r=  1.2343
V l=1 = -2*Zval/r beyond r=  1.2189
All V_l potentials equal beyond r=  1.2343
This should be close to max(r_c) in ps generation
All pots = -2*Zval/r beyond r=  1.2343
Using small-core scheme (local charge) for Vlocal

VLOCAL_FROM_CHLOCAL: 99.0% of the norm of Vloc inside     28.493 Ry
VLOCAL_FROM_CHLOCAL: 99.9% of the norm of Vloc inside     64.935 Ry
atom: Maximum radius forchloc:    1.45251
atom: Maximum radius for r*vlocal+2*Zval:    1.31405

KBgen: Kleinman-Bylander projectors: 
GHOST: No ghost state for L =  0
   l= 0   rc=  1.364359   el= -0.477200   Ekb= -2.021939   kbcos= -0.344793
GHOST: No ghost state for L =  1
   l= 1   rc=  1.434438   el=  0.001076   Ekb= -0.443447   kbcos= -0.022843

KBgen: Total number of Kleinman-Bylander projectors:   4
atom: -------------------------------------------------------------------------

atom: SANKEY-TYPE ORBITALS:

SPLIT: Orbitals with angular momentum L= 0

SPLIT: Basis orbitals for state 1s

SPLIT: PAO cut-off radius determined from an
SPLIT: energy shift=  0.018374 Ry

   izeta = 1
                 lambda =    1.000000
                     rc =    4.828263
                 energy =   -0.460497
                kinetic =    0.968123
    potential(screened) =   -1.428620
       potential(ionic) =   -1.956017
atom: Total number of Sankey-type orbitals:  1

atm_pop: Valence configuration (for local Pseudopot. screening):
 1s( 1.00)                                                            
Vna: chval, zval:    1.00000   1.00000

Vna:  Cut-off radius for the neutral-atom potential:   4.828263

atom: _________________________________________________________________________

<basis_specs>
===============================================================================
Si                   Z=  14    Mass=  28.090        Charge= 0.17977+309
Lmxo=1 Lmxkb= 2    BasisType=split      Semic=F
L=0  Nsemic=0  Cnfigmx=3
          i=1  nzeta=1  polorb=0  (3s)
            splnorm:   0.15000    
               vcte:    0.0000    
               rinn:    0.0000    
               qcoe:    0.0000    
               qyuk:    0.0000    
               qwid:   0.10000E-01
                rcs:    0.0000    
            lambdas:    1.0000    
L=1  Nsemic=0  Cnfigmx=3
          i=1  nzeta=1  polorb=0  (3p)
            splnorm:   0.15000    
               vcte:    0.0000    
               rinn:    0.0000    
               qcoe:    0.0000    
               qyuk:    0.0000    
               qwid:   0.10000E-01
                rcs:    0.0000    
            lambdas:    1.0000    
-------------------------------------------------------------------------------
L=0  Nkbl=1  erefs: 0.17977+309
L=1  Nkbl=1  erefs: 0.17977+309
L=2  Nkbl=1  erefs: 0.17977+309
===============================================================================
</basis_specs>

atom: Called for Si                    (Z =  14)

read_vps: Pseudopotential generation method:
read_vps: ATM3      Troullier-Martins                       
Valence charge in pseudo generation:    4.00000

read_vps: Pseudopotential includes a core correction:
read_vps: Pseudo-core for xc-correction

xc_check: Exchange-correlation functional:
xc_check: GGA Perdew, Burke & Ernzerhof 1996
V l=0 = -2*Zval/r beyond r=  2.1670
V l=1 = -2*Zval/r beyond r=  2.1670
V l=2 = -2*Zval/r beyond r=  2.1670
All V_l potentials equal beyond r=  1.8652
This should be close to max(r_c) in ps generation
All pots = -2*Zval/r beyond r=  2.1670
Using small-core scheme (local charge) for Vlocal

VLOCAL_FROM_CHLOCAL: 99.0% of the norm of Vloc inside     12.478 Ry
VLOCAL_FROM_CHLOCAL: 99.9% of the norm of Vloc inside     28.437 Ry
atom: Maximum radius forchloc:    2.22190
atom: Maximum radius for r*vlocal+2*Zval:    2.06134

KBgen: Kleinman-Bylander projectors: 
GHOST: No ghost state for L =  0
   l= 0   rc=  2.249851   el= -0.791461   Ekb=  5.194896   kbcos=  0.308693
GHOST: No ghost state for L =  1
   l= 1   rc=  2.455599   el= -0.300634   Ekb=  2.050084   kbcos=  0.295081
GHOST: No ghost state for L =  2
   l= 2   rc=  2.549439   el=  0.001958   Ekb= -2.458411   kbcos= -0.044844

KBgen: Total number of Kleinman-Bylander projectors:   9
atom: -------------------------------------------------------------------------

atom: SANKEY-TYPE ORBITALS:

SPLIT: Orbitals with angular momentum L= 0

SPLIT: Basis orbitals for state 3s

SPLIT: PAO cut-off radius determined from an
SPLIT: energy shift=  0.018374 Ry

   izeta = 1
                 lambda =    1.000000
                     rc =    5.007352
                 energy =   -0.772756
                kinetic =    0.573193
    potential(screened) =   -1.345950
       potential(ionic) =   -3.772893

SPLIT: Orbitals with angular momentum L= 1

SPLIT: Basis orbitals for state 3p

SPLIT: PAO cut-off radius determined from an
SPLIT: energy shift=  0.018374 Ry

   izeta = 1
                 lambda =    1.000000
                     rc =    6.270866
                 energy =   -0.282593
                kinetic =    0.876415
    potential(screened) =   -1.159008
       potential(ionic) =   -3.396309
atom: Total number of Sankey-type orbitals:  4

atm_pop: Valence configuration (for local Pseudopot. screening):
 3s( 2.00)                                                            
 3p( 2.00)                                                            
Vna: chval, zval:    4.00000   4.00000

Vna:  Cut-off radius for the neutral-atom potential:   6.270866
comcore: Pseudo-core radius Rcore=  2.999314

atom: _________________________________________________________________________

prinput: Basis input 
* WARNING: This information might be incomplete!!!
----------------------------------------------------------

PAO.BasisType split     

%block ChemicalSpeciesLabel
    1    1 H                       # Species index, atomic number, species label
    2   14 Si                      # Species index, atomic number, species label
%endblock ChemicalSpeciesLabel

%block PAO.Basis                 # Define Basis set
# WARNING: This information might be incomplete!!!
H                     1                    # Species label, number of l-shells
 n=1   0   1                         # n, l, Nzeta 
   4.828   
   1.000   
Si                    2                    # Species label, number of l-shells
 n=3   0   1                         # n, l, Nzeta 
   5.007   
   1.000   
 n=3   1   1                         # n, l, Nzeta 
   6.271   
   1.000   
%endblock PAO.Basis

prinput: ----------------------------------------------------------------------

 CH_OVERLAP: Z1=  0.99999950064277621       ZVAL1=   1.0000000000000000     
 CH_OVERLAP: Z2=  0.99999950064277621       ZVAL2=   1.0000000000000000     
 CH_OVERLAP: Z1=   3.9999976841713396       ZVAL1=   4.0000000000000000     
 CH_OVERLAP: Z2=   3.9999976841713396       ZVAL2=   4.0000000000000000     
 CH_OVERLAP: Z1=   3.9999976841713396       ZVAL1=   4.0000000000000000     
 CH_OVERLAP: Z2=  0.99999950064277621       ZVAL2=   1.0000000000000000     
Dumping basis to NetCDF file H.ion.nc
Dumping basis to NetCDF file Si.ion.nc
coor:   Atomic-coordinates input format  =     Cartesian coordinates
coor:                                            (in Bohr units)

ioxv: Reading coordinates and velocities from file
! Info in XV file prevails over previous structure input

siesta: Atomic coordinates (Bohr) and species
siesta:     11.44910   9.62020  -8.31307  1        1
siesta:     13.10654   9.62102  -8.32551  1        2
siesta:      9.54844   3.61892 -16.54121  2        3
siesta:     13.81721   3.62085 -15.30918  2        4
siesta:      9.52827  10.86660 -16.58059  2        5
siesta:     13.79038  10.84615 -15.30884  2        6
siesta:      7.40610  -0.00011 -18.05640  2        7
siesta:     14.26804  -0.00070 -17.99073  2        8
siesta:      7.40067   7.24049 -18.09223  2        9
siesta:     14.26828   7.23801 -17.98306  2       10
siesta:      3.57141  -0.00001 -20.39950  2       11
siesta:     10.88328  -0.00063 -20.93143  2       12
siesta:      3.57326   7.24344 -20.42579  2       13
siesta:     10.88944   7.23574 -20.91281  2       14
siesta:      3.62218   3.62301 -23.07736  2       15
siesta:     10.86420   3.61841 -23.38492  2       16
siesta:      3.62028  10.86137 -23.08046  2       17
siesta:     10.86588  10.86259 -23.38510  2       18
siesta:      7.23888   3.61945 -25.73678  2       19
siesta:     14.47775   3.61945 -25.73678  2       20
siesta:      7.23801  10.85649 -25.73750  2       21
siesta:     14.48237  10.86040 -25.73728  2       22
siesta:      7.23888   0.00000 -28.31048  2       23
siesta:     14.47775   0.00000 -28.31048  2       24
siesta:      7.23671   7.23702 -28.31081  2       25
siesta:     14.47411   7.23702 -28.31078  2       26
siesta:      3.61945   0.00000 -30.88416  2       27
siesta:     10.85833   0.00000 -30.88416  2       28
siesta:      3.61942   7.23703 -30.88313  2       29
siesta:     10.86614   7.23703 -30.88314  2       30
siesta:      3.61954   2.02752 -32.72596  1       31
siesta:      3.61954  -2.02748 -32.72598  1       32
siesta:     10.85818   2.02653 -32.72947  1       33
siesta:     10.85818  -2.02650 -32.72946  1       34
siesta:      3.61951   9.28497 -32.73349  1       35
siesta:      3.62147   5.19696 -32.73351  1       36
siesta:     10.86614   9.27587 -32.72074  1       37
siesta:     10.86222   5.20017 -32.73639  1       38

siesta: System type = bulk      

initatomlists: Number of atoms, orbitals, and projectors:     38   122   292

siesta: ******************** Simulation parameters ****************************
siesta:
siesta: The following are some of the parameters of the simulation.
siesta: A complete list of the parameters used, including default values,
siesta: can be found in file out.fdf
siesta:
redata: Spin configuration                          = none
redata: Number of spin components                   = 1
redata: Time-Reversal Symmetry                      = T
redata: Spin spiral                                 = F
redata: Long output                                 =   F
redata: Number of Atomic Species                    =        2
redata: Charge density info will appear in .RHO file
redata: Write Mulliken Pop.                         = NO
redata: Matel table size (NRTAB)                    =     1024
redata: Mesh Cutoff                                 =    50.0000 Ry
redata: Net charge of the system                    =     0.0000 |e|
redata: Min. number of SCF Iter                     =        0
redata: Max. number of SCF Iter                     =      300
redata: SCF convergence failure will abort job
redata: SCF mix quantity                            = Hamiltonian
redata: Mix DM or H after convergence               =   F
redata: Recompute H after scf cycle                 =   F
redata: Mix DM in first SCF step                    =   T
redata: Write Pulay info on disk                    =   F
redata: New DM Occupancy tolerance                  = 0.000000000001
redata: No kicks to SCF
redata: DM Mixing Weight for Kicks                  =     0.5000
redata: Require Harris convergence for SCF          =   F
redata: Harris energy tolerance for SCF             =     0.000100 eV
redata: Require DM convergence for SCF              =   T
redata: DM tolerance for SCF                        =     0.000100
redata: Require EDM convergence for SCF             =   F
redata: EDM tolerance for SCF                       =     0.001000 eV
redata: Require H convergence for SCF               =   T
redata: Hamiltonian tolerance for SCF               =     0.001000 eV
redata: Require (free) Energy convergence for SCF   =   F
redata: (free) Energy tolerance for SCF             =     0.000100 eV
redata: Using Saved Data (generic)                  =   F
redata: Use continuation files for DM               =   T
redata: Neglect nonoverlap interactions             =   F
redata: Method of Calculation                       = Diagonalization
redata: Electronic Temperature                      =   299.9869 K
redata: Fix the spin of the system                  =   F
redata: Max. number of TDED Iter                    =        1
redata: Number of TDED substeps                     =        3
redata: Dynamics option                             = Annealing MD run
redata: Initial MD time step                        =        1
redata:   Final MD time step                        =      100
redata: Length of MD time step                      =     2.0000 fs
redata: Initial Temperature of MD run               =     0.0000 K
redata: Annealing Option                            = Temperature
redata: Target Temperature                          =   300.0000 Kelvin
redata: Annealing Relaxation Time                   =    50.0000 fs
mix.SCF: Pulay mixing                            = Pulay
mix.SCF:    Variant                              = stable
mix.SCF:    History steps                        = 4
mix.SCF:    Linear mixing weight                 =     0.250000
mix.SCF:    Mixing weight                        =     0.250000
mix.SCF:    SVD condition                        = 0.1000E-07
redata: Save all siesta data in one NC              =   F
redata: ***********************************************************************

%block SCF.Mixers
  Pulay
%endblock SCF.Mixers

%block SCF.Mixer.Pulay
  # Mixing method
  method pulay
  variant stable

  # Mixing options
  weight 0.2500
  weight.linear 0.2500
  history 4
%endblock SCF.Mixer.Pulay

Size of DM history Fstack: 1
Total number of electrons:   122.000000
Total ionic charge:   122.000000

* ProcessorY, Blocksize:    1  24


* Orbital distribution balance (max,min):   122   122


siesta: k-grid: Number of k-points =         1
siesta: k-point is Gamma-only

diag: Algorithm                                     = D&C
diag: Parallel over k                               =   F
diag: Use parallel 2D distribution                  =   F
diag: Parallel block-size                           = 24
diag: Parallel distribution                         =     1 x     1
diag: Used triangular part                          = Lower
diag: Absolute tolerance                            =  0.100E-15
diag: Orthogonalization factor                      =  0.100E-05
diag: Memory factor                                 =  1.0000

siesta: Constraint (20): pos
  [ 19 -- 38 ]


ts: **************************************************************
ts: Save H and S matrices                           =    F
ts: Save DM and EDM matrices                        =    F
ts: Only save the overlap matrix S                  =    F
ts: **************************************************************

************************ Begin: TS CHECKS AND WARNINGS ************************
************************ End: TS CHECKS AND WARNINGS **************************


                     ====================================
                        Begin MD step =      1
                     ====================================

outcell: Unit cell vectors (Ang):
        7.663480    0.000000    0.000000
        0.000000    7.663480    0.000000
        0.000000    0.000000   15.326960

outcell: Cell vector modules (Ang)   :    7.663480    7.663480   15.326960
outcell: Cell angles (23,13,12) (deg):     90.0000     90.0000     90.0000
outcell: Cell volume (Ang**3)        :    900.1359
Gamma-point calculation with interaction between periodic images
Some features might not work optimally:
e.g. DM initialization from atomic data
<dSpData1D:S at geom step 1
  <sparsity:sparsity for geom step 1
    nrows_g=122 nrows=122 sparsity=.9239 nnzs=13752, refcount: 7>
  <dData1D:(new from dSpData1D) n=13752, refcount: 1>
refcount: 1>
new_DM -- step:     1
Initializing Density Matrix...

Attempting to read DM from file... Failed...
DM filled with atomic data:
<dSpData2D:DM initialized from atoms
  <sparsity:sparsity for geom step 1
    nrows_g=122 nrows=122 sparsity=.9239 nnzs=13752, refcount: 8>
  <dData2D:DM n=13752 m=1, refcount: 1>
refcount: 1>
No. of atoms with KB's overlaping orbs in proc 0. Max # of overlaps:      38     105

InitMesh: MESH = 36 x 36 x 72 = 93312
InitMesh: Mesh cutoff (required, used) =    50.000    60.989 Ry
New grid distribution [1]: sub = 2

stepf: Fermi-Dirac step function

siesta: Program's energy decomposition (eV):
siesta: Ebs     =     -1308.074826
siesta: Eions   =      6039.663214
siesta: Ena     =      2139.964988
siesta: Ekin    =      1246.142492
siesta: Enl     =       460.659815
siesta: Eso     =         0.000000
siesta: Edftu   =         0.000000
siesta: DEna    =        98.568869
siesta: DUscf   =        10.968472
siesta: DUext   =         0.000000
siesta: Ex      =     -1093.745780
siesta: Ec      =      -144.882188
siesta: Exc     =     -1238.627969
siesta: eta*DQ  =         0.000000
siesta: Emadel  =         0.000000
siesta: Emeta   =         0.000000
siesta: Emolmec =         0.000000
siesta: Ekinion =         0.000000
siesta: Eharris =     -3297.500115
siesta: Etot    =     -3321.986546
siesta: FreeEng =     -3321.986546

        iscf     Eharris(eV)        E_KS(eV)     FreeEng(eV)     dDmax    Ef(eV) dHmax(eV)
   scf:    1    -3297.500115    -3321.986546    -3321.986546  1.199701 -3.694983  3.935235
timer: Routine,Calls,Time,% = IterSCF        1       0.253  20.12
   scf:    2    -3322.179294    -3325.500795    -3325.500795  0.323137 -3.886999  2.828848
   scf:    3    -3326.359668    -3326.642301    -3326.642302  0.150770 -4.017553  0.810398
   scf:    4    -3326.864280    -3326.846826    -3326.846828  0.069702 -4.135803  0.291254
   scf:    5    -3326.867547    -3326.863960    -3326.863961  0.022153 -4.142054  0.087919
   scf:    6    -3326.868872    -3326.866754    -3326.866755  0.004751 -4.159418  0.042177
   scf:    7    -3326.867860    -3326.867384    -3326.867385  0.002313 -4.168989  0.022295
   scf:    8    -3326.867674    -3326.867540    -3326.867541  0.000907 -4.172738  0.011274
   scf:    9    -3326.867629    -3326.867589    -3326.867590  0.000601 -4.175012  0.004591
   scf:   10    -3326.867612    -3326.867604    -3326.867605  0.000449 -4.175361  0.002182
   scf:   11    -3326.867606    -3326.867605    -3326.867606  0.000142 -4.175719  0.000937
   scf:   12    -3326.867606    -3326.867606    -3326.867607  0.000078 -4.175978  0.000402

SCF Convergence by DM+H criterion
max |DM_out - DM_in|         :     0.0000776624
max |H_out - H_in|      (eV) :     0.0004018108
SCF cycle converged after 12 iterations

Using DM_out to compute the final energy and forces
 E_bs from EDM:  -1182.5475235843871     
No. of atoms with KB's overlaping orbs in proc 0. Max # of overlaps:      38     105

siesta: E_KS(eV) =            -3326.8676

siesta: E_KS - E_eggbox =     -3326.8676

siesta: Atomic forces (eV/Ang):
----------------------------------------
   Tot    0.068832   -0.028366   -0.096613
----------------------------------------
   Max    2.407471
   Res    0.824262    sqrt( Sum f_i^2 / 3N )
----------------------------------------
   Max    0.704056    constrained

Stress tensor Voigt[x,y,z,yz,xz,xy] (kbar):      -85.91     -157.31      -64.10       -0.20        3.32        0.07
(Free)E + p*V (eV/cell)    -3269.3157
Target enthalpy (eV/cell)    -3326.8676

siesta: Stress tensor (static) (eV/Ang**3):
        -0.053617    0.000044    0.002072
         0.000044   -0.098184   -0.000123
         0.002072   -0.000123   -0.033726

siesta: Pressure (static):         99.08341435  kBar

siesta: Stress tensor (total) (eV/Ang**3):
        -0.053618    0.000044    0.002072
         0.000044   -0.098184   -0.000123
         0.002072   -0.000123   -0.040009

siesta: Pressure (total):        102.43928296  kBar
 Anneal: Kinetic Energy=   0.20936708487032918     
 Anneal: Velocity scale factor =   0.98450823367277829     

siesta: Temp_ion =    1256.536 K

                     ====================================
                        Begin MD step =      2
                     ====================================

outcell: Unit cell vectors (Ang):
        7.663480    0.000000    0.000000
        0.000000    7.663480    0.000000
        0.000000    0.000000   15.326960

outcell: Cell vector modules (Ang)   :    7.663480    7.663480   15.326960
outcell: Cell angles (23,13,12) (deg):     90.0000     90.0000     90.0000
outcell: Cell volume (Ang**3)        :    900.1359
Gamma-point calculation with interaction between periodic images
Some features might not work optimally:
e.g. DM initialization from atomic data
<dSpData1D:S at geom step 2
  <sparsity:sparsity for geom step 2
    nrows_g=122 nrows=122 sparsity=.9242 nnzs=13756, refcount: 7>
  <dData1D:(new from dSpData1D) n=13756, refcount: 1>
refcount: 1>
new_DM -- step:     2
Re-using DM from previous geometries...
Number of DMs in history: 1
 DM extrapolation coefficients: 
1   1.00000
New DM after history re-use:
<dSpData2D:SpM extrapolated using coords
  <sparsity:sparsity for geom step 2
    nrows_g=122 nrows=122 sparsity=.9242 nnzs=13756, refcount: 9>
  <dData2D:(temp array for extrapolation) n=13756 m=1, refcount: 1>
refcount: 1>
No. of atoms with KB's overlaping orbs in proc 0. Max # of overlaps:      38     105

InitMesh: MESH = 36 x 36 x 72 = 93312
InitMesh: Mesh cutoff (required, used) =    50.000    60.989 Ry
New grid distribution [1]: sub = 2

        iscf     Eharris(eV)        E_KS(eV)     FreeEng(eV)     dDmax    Ef(eV) dHmax(eV)
   scf:    1    -3326.878649    -3326.859984    -3326.859985  0.016189 -4.179730  0.074231
   scf:    2    -3326.825352    -3326.849356    -3326.849357  0.014060 -4.170210  0.244155
   scf:    3    -3326.861759    -3326.860481    -3326.860482  0.012310 -4.176421  0.018914
   scf:    4    -3326.860499    -3326.860496    -3326.860497  0.000529 -4.176064  0.009606
   scf:    5    -3326.860498    -3326.860497    -3326.860498  0.000376 -4.175792  0.004497
   scf:    6    -3326.860498    -3326.860498    -3326.860499  0.000107 -4.175692  0.001859
   scf:    7    -3326.860498    -3326.860498    -3326.860499  0.000029 -4.175688  0.000978

SCF Convergence by DM+H criterion
max |DM_out - DM_in|         :     0.0000292195
max |H_out - H_in|      (eV) :     0.0009780180
SCF cycle converged after 7 iterations

Using DM_out to compute the final energy and forces
 E_bs from EDM:  -1182.5925608475929     
No. of atoms with KB's overlaping orbs in proc 0. Max # of overlaps:      38     105

siesta: E_KS(eV) =            -3326.8605

siesta: Atomic forces (eV/Ang):
----------------------------------------
   Tot    0.071220   -0.021359   -0.089055
----------------------------------------
   Max    2.410035
   Res    0.824264    sqrt( Sum f_i^2 / 3N )
----------------------------------------
   Max    0.691396    constrained

Stress tensor Voigt[x,y,z,yz,xz,xy] (kbar):      -85.91     -157.43      -63.90       -0.18        3.36        0.06
(Free)E + p*V (eV/cell)    -3269.3252
Target enthalpy (eV/cell)    -3326.8605

siesta: Stress tensor (static) (eV/Ang**3):
        -0.053616    0.000040    0.002100
         0.000040   -0.098257   -0.000110
         0.002100   -0.000110   -0.033792

siesta: Pressure (static):         99.15713721  kBar

siesta: Stress tensor (total) (eV/Ang**3):
        -0.053617    0.000040    0.002100
         0.000040   -0.098257   -0.000110
         0.002100   -0.000110   -0.039882

siesta: Pressure (total):        102.40983454  kBar
 Anneal: Kinetic Energy=   0.19610393538178927     
 Anneal: Velocity scale factor =   0.98482613030481980     

siesta: Temp_ion =    1177.696 K

                     ====================================
                        Begin MD step =      3
                     ====================================

outcell: Unit cell vectors (Ang):
        7.663480    0.000000    0.000000
        0.000000    7.663480    0.000000
        0.000000    0.000000   15.326960

outcell: Cell vector modules (Ang)   :    7.663480    7.663480   15.326960
outcell: Cell angles (23,13,12) (deg):     90.0000     90.0000     90.0000
outcell: Cell volume (Ang**3)        :    900.1359
Gamma-point calculation with interaction between periodic images
Some features might not work optimally:
e.g. DM initialization from atomic data
<dSpData1D:S at geom step 3
  <sparsity:sparsity for geom step 3
    nrows_g=122 nrows=122 sparsity=.9210 nnzs=13708, refcount: 7>
  <dData1D:(new from dSpData1D) n=13708, refcount: 1>
refcount: 1>
new_DM -- step:     3
Re-using DM from previous geometries...
Number of DMs in history: 1
 DM extrapolation coefficients: 
1   1.00000
New DM after history re-use:
<dSpData2D:SpM extrapolated using coords
  <sparsity:sparsity for geom step 3
    nrows_g=122 nrows=122 sparsity=.9210 nnzs=13708, refcount: 9>
  <dData2D:(temp array for extrapolation) n=13708 m=1, refcount: 1>
refcount: 1>
No. of atoms with KB's overlaping orbs in proc 0. Max # of overlaps:      38     105

InitMesh: MESH = 36 x 36 x 72 = 93312
InitMesh: Mesh cutoff (required, used) =    50.000    60.989 Ry
New grid distribution [1]: sub = 2

        iscf     Eharris(eV)        E_KS(eV)     FreeEng(eV)     dDmax    Ef(eV) dHmax(eV)
   scf:    1    -3326.869828    -3326.860040    -3326.860041  0.014439 -4.175844  0.030546
   scf:    2    -3326.851062    -3326.857277    -3326.857279  0.013204 -4.171367  0.124866
   scf:    3    -3326.860606    -3326.860168    -3326.860169  0.010899 -4.174604  0.004736
   scf:    4    -3326.860173    -3326.860171    -3326.860172  0.000231 -4.174417  0.002477
   scf:    5    -3326.860172    -3326.860171    -3326.860173  0.000160 -4.174405  0.000837
   scf:    6    -3326.860172    -3326.860172    -3326.860173  0.000068 -4.174397  0.000255

SCF Convergence by DM+H criterion
max |DM_out - DM_in|         :     0.0000676507
max |H_out - H_in|      (eV) :     0.0002547227
SCF cycle converged after 6 iterations

Using DM_out to compute the final energy and forces
 E_bs from EDM:  -1182.5070185109903     
No. of atoms with KB's overlaping orbs in proc 0. Max # of overlaps:      38     105

siesta: E_KS(eV) =            -3326.8602

siesta: Atomic forces (eV/Ang):
----------------------------------------
   Tot    0.075886   -0.038357   -0.094108
----------------------------------------
   Max    2.410622
   Res    0.822000    sqrt( Sum f_i^2 / 3N )
----------------------------------------
   Max    0.653741    constrained

Stress tensor Voigt[x,y,z,yz,xz,xy] (kbar):      -85.59     -157.46      -63.26       -0.12        3.39        0.06
(Free)E + p*V (eV/cell)    -3269.4974
Target enthalpy (eV/cell)    -3326.8602

siesta: Stress tensor (static) (eV/Ang**3):
        -0.053415    0.000035    0.002117
         0.000035   -0.098278   -0.000077
         0.002116   -0.000077   -0.033779

siesta: Pressure (static):         99.05398718  kBar

siesta: Stress tensor (total) (eV/Ang**3):
        -0.053419    0.000035    0.002117
         0.000035   -0.098278   -0.000077
         0.002117   -0.000077   -0.039483

siesta: Pressure (total):        102.10259794  kBar
 Anneal: Kinetic Energy=   0.18432913978197438     
 Anneal: Velocity scale factor =   0.98514658474766781     

siesta: Temp_ion =    1107.703 K

                     ====================================
                        Begin MD step =      4
                     ====================================

outcell: Unit cell vectors (Ang):
        7.663480    0.000000    0.000000
        0.000000    7.663480    0.000000
        0.000000    0.000000   15.326960

outcell: Cell vector modules (Ang)   :    7.663480    7.663480   15.326960
outcell: Cell angles (23,13,12) (deg):     90.0000     90.0000     90.0000
outcell: Cell volume (Ang**3)        :    900.1359
Gamma-point calculation with interaction between periodic images
Some features might not work optimally:
e.g. DM initialization from atomic data
<dSpData1D:S at geom step 4
  <sparsity:sparsity for geom step 4
    nrows_g=122 nrows=122 sparsity=.9215 nnzs=13716, refcount: 7>
  <dData1D:(new from dSpData1D) n=13716, refcount: 1>
refcount: 1>
new_DM -- step:     4
Re-using DM from previous geometries...
Number of DMs in history: 1
 DM extrapolation coefficients: 
1   1.00000
New DM after history re-use:
<dSpData2D:SpM extrapolated using coords
  <sparsity:sparsity for geom step 4
    nrows_g=122 nrows=122 sparsity=.9215 nnzs=13716, refcount: 9>
  <dData2D:(temp array for extrapolation) n=13716 m=1, refcount: 1>
refcount: 1>
No. of atoms with KB's overlaping orbs in proc 0. Max # of overlaps:      38     105

InitMesh: MESH = 36 x 36 x 72 = 93312
InitMesh: Mesh cutoff (required, used) =    50.000    60.989 Ry
New grid distribution [1]: sub = 2

        iscf     Eharris(eV)        E_KS(eV)     FreeEng(eV)     dDmax    Ef(eV) dHmax(eV)
   scf:    1    -3326.851788    -3326.860318    -3326.860320  0.038078 -4.173853  0.076716
   scf:    2    -3326.753421    -3326.826949    -3326.826951  0.030057 -4.163450  0.393339
   scf:    3    -3326.866106    -3326.861330    -3326.861331  0.025771 -4.171706  0.010557
   scf:    4    -3326.861339    -3326.861335    -3326.861337  0.000307 -4.171799  0.006273
   scf:    5    -3326.861338    -3326.861337    -3326.861339  0.000243 -4.171852  0.003159
   scf:    6    -3326.861337    -3326.861337    -3326.861339  0.000070 -4.171940  0.001819
   scf:    7    -3326.861337    -3326.861337    -3326.861339  0.000024 -4.172006  0.000678

SCF Convergence by DM+H criterion
max |DM_out - DM_in|         :     0.0000241314
max |H_out - H_in|      (eV) :     0.0006779735
SCF cycle converged after 7 iterations

Using DM_out to compute the final energy and forces
 E_bs from EDM:  -1182.2880432704828     
No. of atoms with KB's overlaping orbs in proc 0. Max # of overlaps:      38     105

siesta: E_KS(eV) =            -3326.8613

siesta: Atomic forces (eV/Ang):
----------------------------------------
   Tot    0.084338   -0.033537   -0.116181
----------------------------------------
   Max    2.410054
   Res    0.818387    sqrt( Sum f_i^2 / 3N )
----------------------------------------
   Max    0.618859    constrained

Stress tensor Voigt[x,y,z,yz,xz,xy] (kbar):      -85.18     -157.45      -62.68       -0.05        3.46        0.03
(Free)E + p*V (eV/cell)    -3269.6847
Target enthalpy (eV/cell)    -3326.8613

siesta: Stress tensor (static) (eV/Ang**3):
        -0.053154    0.000016    0.002158
         0.000016   -0.098274   -0.000028
         0.002158   -0.000028   -0.033763

siesta: Pressure (static):         98.90391134  kBar

siesta: Stress tensor (total) (eV/Ang**3):
        -0.053167    0.000016    0.002163
         0.000016   -0.098274   -0.000029
         0.002163   -0.000029   -0.039119

siesta: Pressure (total):        101.77133755  kBar
 Anneal: Kinetic Energy=   0.17355968025171994     
 Anneal: Velocity scale factor =   0.98547764015839889     

siesta: Temp_ion =    1043.687 K

                     ====================================
                        Begin MD step =      5
                     ====================================

outcell: Unit cell vectors (Ang):
        7.663480    0.000000    0.000000
        0.000000    7.663480    0.000000
        0.000000    0.000000   15.326960

outcell: Cell vector modules (Ang)   :    7.663480    7.663480   15.326960
outcell: Cell angles (23,13,12) (deg):     90.0000     90.0000     90.0000
outcell: Cell volume (Ang**3)        :    900.1359
Gamma-point calculation with interaction between periodic images
Some features might not work optimally:
e.g. DM initialization from atomic data
<dSpData1D:S at geom step 5
  <sparsity:sparsity for geom step 5
    nrows_g=122 nrows=122 sparsity=.9217 nnzs=13718, refcount: 7>
  <dData1D:(new from dSpData1D) n=13718, refcount: 1>
refcount: 1>
new_DM -- step:     5
Re-using DM from previous geometries...
Number of DMs in history: 1
 DM extrapolation coefficients: 
1   1.00000
New DM after history re-use:
<dSpData2D:SpM extrapolated using coords
  <sparsity:sparsity for geom step 5
    nrows_g=122 nrows=122 sparsity=.9217 nnzs=13718, refcount: 9>
  <dData2D:(temp array for extrapolation) n=13718 m=1, refcount: 1>
refcount: 1>
No. of atoms with KB's overlaping orbs in proc 0. Max # of overlaps:      38     105

InitMesh: MESH = 36 x 36 x 72 = 93312
InitMesh: Mesh cutoff (required, used) =    50.000    60.989 Ry
New grid distribution [1]: sub = 2

        iscf     Eharris(eV)        E_KS(eV)     FreeEng(eV)     dDmax    Ef(eV) dHmax(eV)
   scf:    1    -3326.806503    -3326.851724    -3326.851727  0.030176 -4.172908  0.155790
   scf:    2    -3326.455052    -3326.727677    -3326.727681  0.056656 -4.146521  0.809074
   scf:    3    -3326.871591    -3326.855316    -3326.855319  0.050277 -4.167511  0.022819
   scf:    4    -3326.855345    -3326.855337    -3326.855340  0.000665 -4.167783  0.014232
   scf:    5    -3326.855345    -3326.855342    -3326.855345  0.000380 -4.167884  0.006808
   scf:    6    -3326.855342    -3326.855342    -3326.855345  0.000131 -4.168077  0.003612
   scf:    7    -3326.855342    -3326.855342    -3326.855345  0.000038 -4.168209  0.001077
   scf:    8    -3326.855342    -3326.855342    -3326.855345  0.000031 -4.168217  0.000823

SCF Convergence by DM+H criterion
max |DM_out - DM_in|         :     0.0000308569
max |H_out - H_in|      (eV) :     0.0008233358
SCF cycle converged after 8 iterations

Using DM_out to compute the final energy and forces
 E_bs from EDM:  -1181.9822752272987     
No. of atoms with KB's overlaping orbs in proc 0. Max # of overlaps:      38     105

siesta: E_KS(eV) =            -3326.8553

siesta: Atomic forces (eV/Ang):
----------------------------------------
   Tot    0.055625   -0.034115   -0.134215
----------------------------------------
   Max    2.408975
   Res    0.813888    sqrt( Sum f_i^2 / 3N )
----------------------------------------
   Max    0.582997    constrained

Stress tensor Voigt[x,y,z,yz,xz,xy] (kbar):      -84.80     -157.59      -62.37        0.07        3.58       -0.02
(Free)E + p*V (eV/cell)    -3269.7834
Target enthalpy (eV/cell)    -3326.8553

siesta: Stress tensor (static) (eV/Ang**3):
        -0.052901   -0.000016    0.002225
        -0.000016   -0.098356    0.000048
         0.002225    0.000048   -0.033895

siesta: Pressure (static):         98.88331907  kBar

siesta: Stress tensor (total) (eV/Ang**3):
        -0.052927   -0.000015    0.002235
        -0.000015   -0.098357    0.000044
         0.002235    0.000044   -0.038927

siesta: Pressure (total):        101.58503033  kBar
 Anneal: Kinetic Energy=   0.16309099882217362     
 Anneal: Velocity scale factor =   0.98584122829820875     

siesta: Temp_ion =     981.458 K

                     ====================================
                        Begin MD step =      6
                     ====================================

outcell: Unit cell vectors (Ang):
        7.663480    0.000000    0.000000
        0.000000    7.663480    0.000000
        0.000000    0.000000   15.326960

outcell: Cell vector modules (Ang)   :    7.663480    7.663480   15.326960
outcell: Cell angles (23,13,12) (deg):     90.0000     90.0000     90.0000
outcell: Cell volume (Ang**3)        :    900.1359
Gamma-point calculation with interaction between periodic images
Some features might not work optimally:
e.g. DM initialization from atomic data
<dSpData1D:S at geom step 6
  <sparsity:sparsity for geom step 6
    nrows_g=122 nrows=122 sparsity=.9195 nnzs=13686, refcount: 7>
  <dData1D:(new from dSpData1D) n=13686, refcount: 1>
refcount: 1>
new_DM -- step:     6
Re-using DM from previous geometries...
Number of DMs in history: 1
 DM extrapolation coefficients: 
1   1.00000
New DM after history re-use:
<dSpData2D:SpM extrapolated using coords
  <sparsity:sparsity for geom step 6
    nrows_g=122 nrows=122 sparsity=.9195 nnzs=13686, refcount: 9>
  <dData2D:(temp array for extrapolation) n=13686 m=1, refcount: 1>
refcount: 1>
No. of atoms with KB's overlaping orbs in proc 0. Max # of overlaps:      38     105

InitMesh: MESH = 36 x 36 x 72 = 93312
InitMesh: Mesh cutoff (required, used) =    50.000    60.989 Ry
New grid distribution [1]: sub = 2

        iscf     Eharris(eV)        E_KS(eV)     FreeEng(eV)     dDmax    Ef(eV) dHmax(eV)
   scf:    1    -3326.710495    -3326.820681    -3326.820686  0.041137 -4.173451  0.275492
   scf:    2    -3325.678857    -3326.462843    -3326.462852  0.103089 -4.118251  1.449353
   scf:    3    -3326.872896    -3326.830541    -3326.830547  0.093027 -4.161918  0.043465
   scf:    4    -3326.830686    -3326.830654    -3326.830659  0.001894 -4.162409  0.026102
   scf:    5    -3326.830668    -3326.830662    -3326.830668  0.000526 -4.162473  0.012039
   scf:    6    -3326.830663    -3326.830663    -3326.830669  0.000206 -4.162794  0.006281
   scf:    7    -3326.830663    -3326.830663    -3326.830669  0.000091 -4.163023  0.001589
   scf:    8    -3326.830664    -3326.830663    -3326.830669  0.000053 -4.163070  0.000799

SCF Convergence by DM+H criterion
max |DM_out - DM_in|         :     0.0000525277
max |H_out - H_in|      (eV) :     0.0007987138
SCF cycle converged after 8 iterations

Using DM_out to compute the final energy and forces
 E_bs from EDM:  -1181.6634392288975     
No. of atoms with KB's overlaping orbs in proc 0. Max # of overlaps:      38     105

siesta: E_KS(eV) =            -3326.8307

siesta: Atomic forces (eV/Ang):
----------------------------------------
   Tot    0.022095   -0.031166   -0.109931
----------------------------------------
   Max    2.407627
   Res    0.809086    sqrt( Sum f_i^2 / 3N )
----------------------------------------
   Max    0.541312    constrained

Stress tensor Voigt[x,y,z,yz,xz,xy] (kbar):      -84.41     -157.75      -62.39        0.40        3.73       -0.09
(Free)E + p*V (eV/cell)    -3269.7959
Target enthalpy (eV/cell)    -3326.8307

siesta: Stress tensor (static) (eV/Ang**3):
        -0.052643   -0.000055    0.002312
        -0.000055   -0.098459    0.000256
         0.002312    0.000256   -0.034228

siesta: Pressure (static):         98.97826567  kBar

siesta: Stress tensor (total) (eV/Ang**3):
        -0.052683   -0.000054    0.002327
        -0.000054   -0.098461    0.000247
         0.002327    0.000247   -0.038943

siesta: Pressure (total):        101.51889020  kBar
 Anneal: Kinetic Energy=   0.15204522178304228     
 Anneal: Velocity scale factor =   0.98627896560372974     

siesta: Temp_ion =     915.799 K

                     ====================================
                        Begin MD step =      7
                     ====================================

outcell: Unit cell vectors (Ang):
        7.663480    0.000000    0.000000
        0.000000    7.663480    0.000000
        0.000000    0.000000   15.326960

outcell: Cell vector modules (Ang)   :    7.663480    7.663480   15.326960
outcell: Cell angles (23,13,12) (deg):     90.0000     90.0000     90.0000
outcell: Cell volume (Ang**3)        :    900.1359
Gamma-point calculation with interaction between periodic images
Some features might not work optimally:
e.g. DM initialization from atomic data
<dSpData1D:S at geom step 7
  <sparsity:sparsity for geom step 7
    nrows_g=122 nrows=122 sparsity=.9184 nnzs=13670, refcount: 7>
  <dData1D:(new from dSpData1D) n=13670, refcount: 1>
refcount: 1>
new_DM -- step:     7
Re-using DM from previous geometries...
Number of DMs in history: 1
 DM extrapolation coefficients: 
1   1.00000
New DM after history re-use:
<dSpData2D:SpM extrapolated using coords
  <sparsity:sparsity for geom step 7
    nrows_g=122 nrows=122 sparsity=.9184 nnzs=13670, refcount: 9>
  <dData2D:(temp array for extrapolation) n=13670 m=1, refcount: 1>
refcount: 1>
No. of atoms with KB's overlaping orbs in proc 0. Max # of overlaps:      38     105

InitMesh: MESH = 36 x 36 x 72 = 93312
InitMesh: Mesh cutoff (required, used) =    50.000    60.989 Ry
New grid distribution [1]: sub = 2

        iscf     Eharris(eV)        E_KS(eV)     FreeEng(eV)     dDmax    Ef(eV) dHmax(eV)
   scf:    1    -3326.529518    -3326.745892    -3326.745907  0.054579 -4.176215  0.454048
   scf:    2    -3323.621628    -3325.763179    -3325.763203  0.190978 -4.075771  2.484554
   scf:    3    -3326.868866    -3326.770559    -3326.770575  0.176190 -4.154769  0.083253
   scf:    4    -3326.771372    -3326.771173    -3326.771190  0.004910 -4.155608  0.047223
   scf:    5    -3326.771202    -3326.771197    -3326.771213  0.000840 -4.155475  0.018888
   scf:    6    -3326.771198    -3326.771200    -3326.771217  0.000583 -4.155924  0.010663
   scf:    7    -3326.771202    -3326.771201    -3326.771218  0.000207 -4.156258  0.002520
   scf:    8    -3326.771202    -3326.771201    -3326.771218  0.000078 -4.156375  0.000804

SCF Convergence by DM+H criterion
max |DM_out - DM_in|         :     0.0000775472
max |H_out - H_in|      (eV) :     0.0008043767
SCF cycle converged after 8 iterations

Using DM_out to compute the final energy and forces
 E_bs from EDM:  -1181.4278342621669     
No. of atoms with KB's overlaping orbs in proc 0. Max # of overlaps:      38     105

siesta: E_KS(eV) =            -3326.7712

siesta: Atomic forces (eV/Ang):
----------------------------------------
   Tot    0.072883   -0.027377   -0.127874
----------------------------------------
   Max    2.406282
   Res    0.805642    sqrt( Sum f_i^2 / 3N )
----------------------------------------
   Max    0.491929    constrained

Stress tensor Voigt[x,y,z,yz,xz,xy] (kbar):      -84.03     -157.98      -62.85        0.88        3.88       -0.20
(Free)E + p*V (eV/cell)    -3269.6803
Target enthalpy (eV/cell)    -3326.7712

siesta: Stress tensor (static) (eV/Ang**3):
        -0.052391   -0.000128    0.002411
        -0.000128   -0.098598    0.000569
         0.002411    0.000569   -0.034847

siesta: Pressure (static):         99.24813948  kBar

siesta: Stress tensor (total) (eV/Ang**3):
        -0.052448   -0.000127    0.002424
        -0.000127   -0.098600    0.000549
         0.002424    0.000549   -0.039226

siesta: Pressure (total):        101.61879724  kBar
 Anneal: Kinetic Energy=   0.13926648449574203     
 Anneal: Velocity scale factor =   0.98687170219790354     

siesta: Temp_ion =     839.839 K

                     ====================================
                        Begin MD step =      8
                     ====================================

outcell: Unit cell vectors (Ang):
        7.663480    0.000000    0.000000
        0.000000    7.663480    0.000000
        0.000000    0.000000   15.326960

outcell: Cell vector modules (Ang)   :    7.663480    7.663480   15.326960
outcell: Cell angles (23,13,12) (deg):     90.0000     90.0000     90.0000
outcell: Cell volume (Ang**3)        :    900.1359
Gamma-point calculation with interaction between periodic images
Some features might not work optimally:
e.g. DM initialization from atomic data
<dSpData1D:S at geom step 8
  <sparsity:sparsity for geom step 8
    nrows_g=122 nrows=122 sparsity=.9186 nnzs=13672, refcount: 7>
  <dData1D:(new from dSpData1D) n=13672, refcount: 1>
refcount: 1>
new_DM -- step:     8
Re-using DM from previous geometries...
Number of DMs in history: 1
 DM extrapolation coefficients: 
1   1.00000
New DM after history re-use:
<dSpData2D:SpM extrapolated using coords
  <sparsity:sparsity for geom step 8
    nrows_g=122 nrows=122 sparsity=.9186 nnzs=13672, refcount: 9>
  <dData2D:(temp array for extrapolation) n=13672 m=1, refcount: 1>
refcount: 1>
No. of atoms with KB's overlaping orbs in proc 0. Max # of overlaps:      38     105

InitMesh: MESH = 36 x 36 x 72 = 93312
InitMesh: Mesh cutoff (required, used) =    50.000    60.989 Ry
New grid distribution [1]: sub = 2

        iscf     Eharris(eV)        E_KS(eV)     FreeEng(eV)     dDmax    Ef(eV) dHmax(eV)
   scf:    1    -3326.221175    -3326.598955    -3326.599015  0.073394 -4.182047  0.704098
   scf:    2    -3318.285823    -3323.969775    -3323.969842  0.366338 -4.020025  4.124952
   scf:    3    -3326.852161    -3326.655023    -3326.655081  0.345779 -4.146047  0.163452
   scf:    4    -3326.659097    -3326.657977    -3326.658043  0.011681 -4.147474  0.083717
   scf:    5    -3326.658034    -3326.658083    -3326.658152  0.003003 -4.146852  0.027443
   scf:    6    -3326.658093    -3326.658103    -3326.658172  0.001503 -4.147369  0.017679
   scf:    7    -3326.658109    -3326.658107    -3326.658177  0.000439 -4.147783  0.004039
   scf:    8    -3326.658108    -3326.658108    -3326.658177  0.000108 -4.147988  0.000993
   scf:    9    -3326.658108    -3326.658108    -3326.658177  0.000054 -4.148010  0.000368

SCF Convergence by DM+H criterion
max |DM_out - DM_in|         :     0.0000544504
max |H_out - H_in|      (eV) :     0.0003680727
SCF cycle converged after 9 iterations

Using DM_out to compute the final energy and forces
 E_bs from EDM:  -1181.3881595036919     
No. of atoms with KB's overlaping orbs in proc 0. Max # of overlaps:      38     105

siesta: E_KS(eV) =            -3326.6581

siesta: Atomic forces (eV/Ang):
----------------------------------------
   Tot    0.012863   -0.034820   -0.167623
----------------------------------------
   Max    2.404912
   Res    0.805259    sqrt( Sum f_i^2 / 3N )
----------------------------------------
   Max    0.674369    constrained

Stress tensor Voigt[x,y,z,yz,xz,xy] (kbar):      -83.87     -158.23      -63.55        1.59        4.20       -0.45
(Free)E + p*V (eV/cell)    -3269.4185
Target enthalpy (eV/cell)    -3326.6582

siesta: Stress tensor (static) (eV/Ang**3):
        -0.052276   -0.000281    0.002618
        -0.000281   -0.098753    0.001037
         0.002619    0.001037   -0.035671

siesta: Pressure (static):         99.70957547  kBar

siesta: Stress tensor (total) (eV/Ang**3):
        -0.052348   -0.000280    0.002620
        -0.000280   -0.098756    0.000995
         0.002621    0.000995   -0.039666

siesta: Pressure (total):        101.88360054  kBar
 Anneal: Kinetic Energy=   0.12356916398001790     
 Anneal: Velocity scale factor =   0.98776693216539169     

siesta: Temp_ion =     746.529 K

                     ====================================
                        Begin MD step =      9
                     ====================================

outcell: Unit cell vectors (Ang):
        7.663480    0.000000    0.000000
        0.000000    7.663480    0.000000
        0.000000    0.000000   15.326960

outcell: Cell vector modules (Ang)   :    7.663480    7.663480   15.326960
outcell: Cell angles (23,13,12) (deg):     90.0000     90.0000     90.0000
outcell: Cell volume (Ang**3)        :    900.1359
Gamma-point calculation with interaction between periodic images
Some features might not work optimally:
e.g. DM initialization from atomic data
<dSpData1D:S at geom step 9
  <sparsity:sparsity for geom step 9
    nrows_g=122 nrows=122 sparsity=.9202 nnzs=13696, refcount: 7>
  <dData1D:(new from dSpData1D) n=13696, refcount: 1>
refcount: 1>
new_DM -- step:     9
Re-using DM from previous geometries...
Number of DMs in history: 1
 DM extrapolation coefficients: 
1   1.00000
New DM after history re-use:
<dSpData2D:SpM extrapolated using coords
  <sparsity:sparsity for geom step 9
    nrows_g=122 nrows=122 sparsity=.9202 nnzs=13696, refcount: 9>
  <dData2D:(temp array for extrapolation) n=13696 m=1, refcount: 1>
refcount: 1>
No. of atoms with KB's overlaping orbs in proc 0. Max # of overlaps:      38     105

InitMesh: MESH = 36 x 36 x 72 = 93312
InitMesh: Mesh cutoff (required, used) =    50.000    60.989 Ry
New grid distribution [1]: sub = 2

        iscf     Eharris(eV)        E_KS(eV)     FreeEng(eV)     dDmax    Ef(eV) dHmax(eV)
   scf:    1    -3325.753801    -3326.355799    -3326.356140  0.100105 -4.190876  1.085293
   scf:    2    -3306.706963    -3320.119050    -3320.119145  0.659694 -3.968093  6.341709
   scf:    3    -3326.826121    -3326.471479    -3326.471795  0.625368 -4.136117  0.269933
   scf:    4    -3326.482626    -3326.479733    -3326.480125  0.021610 -4.138472  0.121508
   scf:    5    -3326.479996    -3326.480009    -3326.480433  0.003638 -4.137463  0.048490
   scf:    6    -3326.480027    -3326.480035    -3326.480464  0.001270 -4.137824  0.026299
   scf:    7    -3326.480037    -3326.480038    -3326.480474  0.000557 -4.138186  0.009296
   scf:    8    -3326.480033    -3326.480038    -3326.480476  0.000796 -4.138487  0.001734
   scf:    9    -3326.480040    -3326.480039    -3326.480477  0.000380 -4.138523  0.001655
   scf:   10    -3326.480039    -3326.480039    -3326.480477  0.000076 -4.138611  0.000431

SCF Convergence by DM+H criterion
max |DM_out - DM_in|         :     0.0000756268
max |H_out - H_in|      (eV) :     0.0004306972
SCF cycle converged after 10 iterations

Using DM_out to compute the final energy and forces
 E_bs from EDM:  -1181.6572803929650     
No. of atoms with KB's overlaping orbs in proc 0. Max # of overlaps:      38     105

siesta: E_KS(eV) =            -3326.4800

siesta: Atomic forces (eV/Ang):
----------------------------------------
   Tot    0.011992   -0.043301   -0.195757
----------------------------------------
   Max    2.403330
   Res    0.811199    sqrt( Sum f_i^2 / 3N )
----------------------------------------
   Max    0.992848    constrained

Stress tensor Voigt[x,y,z,yz,xz,xy] (kbar):      -83.85     -158.58      -64.63        2.50        4.47       -0.77
(Free)E + p*V (eV/cell)    -3268.9779
Target enthalpy (eV/cell)    -3326.4805

siesta: Stress tensor (static) (eV/Ang**3):
        -0.052248   -0.000482    0.002815
        -0.000482   -0.098970    0.001643
         0.002816    0.001643   -0.036810

siesta: Pressure (static):        100.41910490  kBar

siesta: Stress tensor (total) (eV/Ang**3):
        -0.052334   -0.000482    0.002791
        -0.000482   -0.098976    0.001562
         0.002791    0.001562   -0.040337

siesta: Pressure (total):        102.35158761  kBar
 Anneal: Kinetic Energy=   0.10444886063038256     
 Anneal: Velocity scale factor =   0.98921914673110567     

siesta: Temp_ion =     632.873 K

                     ====================================
                        Begin MD step =     10
                     ====================================

outcell: Unit cell vectors (Ang):
        7.663480    0.000000    0.000000
        0.000000    7.663480    0.000000
        0.000000    0.000000   15.326960

outcell: Cell vector modules (Ang)   :    7.663480    7.663480   15.326960
outcell: Cell angles (23,13,12) (deg):     90.0000     90.0000     90.0000
outcell: Cell volume (Ang**3)        :    900.1359
Gamma-point calculation with interaction between periodic images
Some features might not work optimally:
e.g. DM initialization from atomic data
<dSpData1D:S at geom step 10
  <sparsity:sparsity for geom step 10
    nrows_g=122 nrows=122 sparsity=.9191 nnzs=13680, refcount: 7>
  <dData1D:(new from dSpData1D) n=13680, refcount: 1>
refcount: 1>
new_DM -- step:    10
Re-using DM from previous geometries...
Number of DMs in history: 1
 DM extrapolation coefficients: 
1   1.00000
New DM after history re-use:
<dSpData2D:SpM extrapolated using coords
  <sparsity:sparsity for geom step 10
    nrows_g=122 nrows=122 sparsity=.9191 nnzs=13680, refcount: 9>
  <dData2D:(temp array for extrapolation) n=13680 m=1, refcount: 1>
refcount: 1>
No. of atoms with KB's overlaping orbs in proc 0. Max # of overlaps:      38     105

InitMesh: MESH = 36 x 36 x 72 = 93312
InitMesh: Mesh cutoff (required, used) =    50.000    60.989 Ry
New grid distribution [1]: sub = 2

        iscf     Eharris(eV)        E_KS(eV)     FreeEng(eV)     dDmax    Ef(eV) dHmax(eV)
   scf:    1    -3325.128650    -3326.012388    -3326.014694  0.136328 -4.200036  1.594916
   scf:    2    -3291.872974    -3315.248056    -3315.248104  0.933243 -3.970840  8.649956
   scf:    3    -3327.147891    -3326.240055    -3326.242726  0.838014 -4.125213  0.185975
   scf:    4    -3326.247030    -3326.245435    -3326.248615  0.016691 -4.129269  0.121037
   scf:    5    -3326.245358    -3326.245472    -3326.248934  0.002818 -4.129109  0.068539
   scf:    6    -3326.245387    -3326.245440    -3326.248993  0.001513 -4.129014  0.033757
   scf:    7    -3326.245282    -3326.245365    -3326.249011  0.000885 -4.129244  0.007403
   scf:    8    -3326.245284    -3326.245332    -3326.249009  0.001574 -4.129555  0.004881
   scf:    9    -3326.245382    -3326.245361    -3326.249015  0.001127 -4.129532  0.003244
   scf:   10    -3326.245351    -3326.245356    -3326.249016  0.000105 -4.129636  0.000716
   scf:   11    -3326.245354    -3326.245355    -3326.249016  0.000049 -4.129709  0.000293

SCF Convergence by DM+H criterion
max |DM_out - DM_in|         :     0.0000487223
max |H_out - H_in|      (eV) :     0.0002934274
SCF cycle converged after 11 iterations

Using DM_out to compute the final energy and forces
 E_bs from EDM:  -1182.3238407929848     
No. of atoms with KB's overlaping orbs in proc 0. Max # of overlaps:      38     105

siesta: E_KS(eV) =            -3326.2454

siesta: Atomic forces (eV/Ang):
----------------------------------------
   Tot    0.032389   -0.026294   -0.187798
----------------------------------------
   Max    2.401402
   Res    0.825796    sqrt( Sum f_i^2 / 3N )
----------------------------------------
   Max    1.323478    constrained

Stress tensor Voigt[x,y,z,yz,xz,xy] (kbar):      -84.04     -158.97      -65.62        3.59        4.88       -1.21
(Free)E + p*V (eV/cell)    -3268.4525
Target enthalpy (eV/cell)    -3326.2490

siesta: Stress tensor (static) (eV/Ang**3):
        -0.052352   -0.000751    0.003114
        -0.000751   -0.099207    0.002378
         0.003114    0.002378   -0.038000

siesta: Pressure (static):        101.23651685  kBar

siesta: Stress tensor (total) (eV/Ang**3):
        -0.052452   -0.000757    0.003047
        -0.000757   -0.099221    0.002239
         0.003047    0.002239   -0.040954

siesta: Pressure (total):        102.87478609  kBar
 Anneal: Kinetic Energy=    8.3121611578961557E-002
 Anneal: Velocity scale factor =   0.99162251793420053     

siesta: Temp_ion =     506.098 K

                     ====================================
                        Begin MD step =     11
                     ====================================

outcell: Unit cell vectors (Ang):
        7.663480    0.000000    0.000000
        0.000000    7.663480    0.000000
        0.000000    0.000000   15.326960

outcell: Cell vector modules (Ang)   :    7.663480    7.663480   15.326960
outcell: Cell angles (23,13,12) (deg):     90.0000     90.0000     90.0000
outcell: Cell volume (Ang**3)        :    900.1359
Gamma-point calculation with interaction between periodic images
Some features might not work optimally:
e.g. DM initialization from atomic data
<dSpData1D:S at geom step 11
  <sparsity:sparsity for geom step 11
    nrows_g=122 nrows=122 sparsity=.9213 nnzs=13712, refcount: 7>
  <dData1D:(new from dSpData1D) n=13712, refcount: 1>
refcount: 1>
new_DM -- step:    11
Re-using DM from previous geometries...
Number of DMs in history: 1
 DM extrapolation coefficients: 
1   1.00000
New DM after history re-use:
<dSpData2D:SpM extrapolated using coords
  <sparsity:sparsity for geom step 11
    nrows_g=122 nrows=122 sparsity=.9213 nnzs=13712, refcount: 9>
  <dData2D:(temp array for extrapolation) n=13712 m=1, refcount: 1>
refcount: 1>
No. of atoms with KB's overlaping orbs in proc 0. Max # of overlaps:      38     105

InitMesh: MESH = 36 x 36 x 72 = 93312
InitMesh: Mesh cutoff (required, used) =    50.000    60.989 Ry
New grid distribution [1]: sub = 2

        iscf     Eharris(eV)        E_KS(eV)     FreeEng(eV)     dDmax    Ef(eV) dHmax(eV)
   scf:    1    -3324.433966    -3325.612114    -3325.623917  0.201038 -4.202961  2.129297
   scf:    2    -3282.412599    -3312.207750    -3312.207801  1.045841 -4.031773 10.673009
   scf:    3    -3328.631157    -3325.874579    -3325.895406  0.763758 -4.106649  0.783420
   scf:    4    -3325.893215    -3325.975714    -3325.990953  0.186689 -4.112004  0.364034
   scf:    5    -3325.971055    -3325.986822    -3326.007767  0.069649 -4.117787  0.116556
   scf:    6    -3325.988449    -3325.988522    -3326.010019  0.014225 -4.119323  0.060426
   scf:    7    -3325.988358    -3325.988674    -3326.009688  0.009394 -4.118430  0.077186
   scf:    8    -3325.987096    -3325.988176    -3326.010085  0.011013 -4.118806  0.011869
   scf:    9    -3325.988300    -3325.988280    -3326.010102  0.004034 -4.118812  0.014291
   scf:   10    -3325.988084    -3325.988188    -3326.010121  0.001535 -4.118873  0.001878
   scf:   11    -3325.988198    -3325.988193    -3326.010122  0.000071 -4.118983  0.002200
   scf:   12    -3325.988159    -3325.988176    -3326.010122  0.000232 -4.119087  0.000241
   scf:   13    -3325.988174    -3325.988175    -3326.010122  0.000050 -4.119124  0.000244

SCF Convergence by DM+H criterion
max |DM_out - DM_in|         :     0.0000499697
max |H_out - H_in|      (eV) :     0.0002441420
SCF cycle converged after 13 iterations

Using DM_out to compute the final energy and forces
 E_bs from EDM:  -1183.6109362729062     
No. of atoms with KB's overlaping orbs in proc 0. Max # of overlaps:      38     105

siesta: E_KS(eV) =            -3325.9882

siesta: Atomic forces (eV/Ang):
----------------------------------------
   Tot    0.051223   -0.034442   -0.235819
----------------------------------------
   Max    2.399298
   Res    0.846566    sqrt( Sum f_i^2 / 3N )
----------------------------------------
   Max    1.580950    constrained

Stress tensor Voigt[x,y,z,yz,xz,xy] (kbar):      -85.29     -158.66      -65.97        4.66        5.60       -1.82
(Free)E + p*V (eV/cell)    -3267.9727
Target enthalpy (eV/cell)    -3326.0101

siesta: Stress tensor (static) (eV/Ang**3):
        -0.053112   -0.001115    0.003616
        -0.001115   -0.098990    0.003119
         0.003616    0.003119   -0.038874

siesta: Pressure (static):        101.99347676  kBar

siesta: Stress tensor (total) (eV/Ang**3):
        -0.053231   -0.001134    0.003495
        -0.001134   -0.099025    0.002909
         0.003495    0.002909   -0.041173

siesta: Pressure (total):        103.30357318  kBar
 Anneal: Kinetic Energy=    6.3209963779889120E-002
 Anneal: Velocity scale factor =   0.99531889341599578     

siesta: Temp_ion =     387.738 K

                     ====================================
                        Begin MD step =     12
                     ====================================

outcell: Unit cell vectors (Ang):
        7.663480    0.000000    0.000000
        0.000000    7.663480    0.000000
        0.000000    0.000000   15.326960

outcell: Cell vector modules (Ang)   :    7.663480    7.663480   15.326960
outcell: Cell angles (23,13,12) (deg):     90.0000     90.0000     90.0000
outcell: Cell volume (Ang**3)        :    900.1359
Gamma-point calculation with interaction between periodic images
Some features might not work optimally:
e.g. DM initialization from atomic data
<dSpData1D:S at geom step 12
  <sparsity:sparsity for geom step 12
    nrows_g=122 nrows=122 sparsity=.9206 nnzs=13702, refcount: 7>
  <dData1D:(new from dSpData1D) n=13702, refcount: 1>
refcount: 1>
new_DM -- step:    12
Re-using DM from previous geometries...
Number of DMs in history: 1
 DM extrapolation coefficients: 
1   1.00000
New DM after history re-use:
<dSpData2D:SpM extrapolated using coords
  <sparsity:sparsity for geom step 12
    nrows_g=122 nrows=122 sparsity=.9206 nnzs=13702, refcount: 9>
  <dData2D:(temp array for extrapolation) n=13702 m=1, refcount: 1>
refcount: 1>
No. of atoms with KB's overlaping orbs in proc 0. Max # of overlaps:      38     105

InitMesh: MESH = 36 x 36 x 72 = 93312
InitMesh: Mesh cutoff (required, used) =    50.000    60.989 Ry
New grid distribution [1]: sub = 2

        iscf     Eharris(eV)        E_KS(eV)     FreeEng(eV)     dDmax    Ef(eV) dHmax(eV)
   scf:    1    -3324.345679    -3325.418996    -3325.442815  0.344043 -4.187698  2.216114
   scf:    2    -3285.364111    -3313.058902    -3313.060030  0.932140 -3.991108 11.200357
   scf:    3    -3328.559010    -3325.599164    -3325.651160  0.650141 -4.079185  1.048880
   scf:    4    -3325.567266    -3325.756950    -3325.792085  0.253158 -4.089026  0.636177
   scf:    5    -3325.738581    -3325.787299    -3325.837967  0.123780 -4.097931  0.214372
   scf:    6    -3325.798274    -3325.794726    -3325.844815  0.017516 -4.101618  0.060769
   scf:    7    -3325.797089    -3325.797462    -3325.844705  0.025442 -4.100976  0.089099
   scf:    8    -3325.795183    -3325.796807    -3325.845622  0.014547 -4.101578  0.014998
   scf:    9    -3325.797276    -3325.797057    -3325.845622  0.002532 -4.101810  0.013373
   scf:   10    -3325.796819    -3325.796945    -3325.845638  0.001512 -4.101832  0.001391
   scf:   11    -3325.796976    -3325.796960    -3325.845637  0.000273 -4.101941  0.002739
   scf:   12    -3325.796919    -3325.796940    -3325.845638  0.000169 -4.102047  0.001155
   scf:   13    -3325.796876    -3325.796908    -3325.845638  0.000328 -4.102109  0.000988
   scf:   14    -3325.796930    -3325.796919    -3325.845638  0.000104 -4.102099  0.000224
   scf:   15    -3325.796915    -3325.796917    -3325.845638  0.000012 -4.102118  0.000179

SCF Convergence by DM+H criterion
max |DM_out - DM_in|         :     0.0000123500
max |H_out - H_in|      (eV) :     0.0001792601
SCF cycle converged after 15 iterations

Using DM_out to compute the final energy and forces
 E_bs from EDM:  -1185.6307577938530     
No. of atoms with KB's overlaping orbs in proc 0. Max # of overlaps:      38     105

siesta: E_KS(eV) =            -3325.7969

siesta: Atomic forces (eV/Ang):
----------------------------------------
   Tot    0.097431   -0.000535   -0.222721
----------------------------------------
   Max    2.401463
   Res    0.864161    sqrt( Sum f_i^2 / 3N )
----------------------------------------
   Max    1.790894    constrained

Stress tensor Voigt[x,y,z,yz,xz,xy] (kbar):      -87.95     -156.66      -64.22        4.89        6.97       -2.77
(Free)E + p*V (eV/cell)    -3268.0107
Target enthalpy (eV/cell)    -3325.8456

siesta: Stress tensor (static) (eV/Ang**3):
        -0.054737   -0.001675    0.004521
        -0.001675   -0.097692    0.003320
         0.004521    0.003320   -0.038445

siesta: Pressure (static):        101.93935176  kBar

siesta: Stress tensor (total) (eV/Ang**3):
        -0.054893   -0.001731    0.004352
        -0.001731   -0.097777    0.003049
         0.004352    0.003049   -0.040084

siesta: Pressure (total):        102.94305790  kBar
 Anneal: Kinetic Energy=    5.0277472210065142E-002
 Anneal: Velocity scale factor =   0.99927276596493086     

siesta: Temp_ion =     310.863 K

                     ====================================
                        Begin MD step =     13
                     ====================================

outcell: Unit cell vectors (Ang):
        7.663480    0.000000    0.000000
        0.000000    7.663480    0.000000
        0.000000    0.000000   15.326960

outcell: Cell vector modules (Ang)   :    7.663480    7.663480   15.326960
outcell: Cell angles (23,13,12) (deg):     90.0000     90.0000     90.0000
outcell: Cell volume (Ang**3)        :    900.1359
Gamma-point calculation with interaction between periodic images
Some features might not work optimally:
e.g. DM initialization from atomic data
<dSpData1D:S at geom step 13
  <sparsity:sparsity for geom step 13
    nrows_g=122 nrows=122 sparsity=.9209 nnzs=13706, refcount: 7>
  <dData1D:(new from dSpData1D) n=13706, refcount: 1>
refcount: 1>
new_DM -- step:    13
Re-using DM from previous geometries...
Number of DMs in history: 1
 DM extrapolation coefficients: 
1   1.00000
New DM after history re-use:
<dSpData2D:SpM extrapolated using coords
  <sparsity:sparsity for geom step 13
    nrows_g=122 nrows=122 sparsity=.9209 nnzs=13706, refcount: 9>
  <dData2D:(temp array for extrapolation) n=13706 m=1, refcount: 1>
refcount: 1>
No. of atoms with KB's overlaping orbs in proc 0. Max # of overlaps:      38     105

InitMesh: MESH = 36 x 36 x 72 = 93312
InitMesh: Mesh cutoff (required, used) =    50.000    60.989 Ry
New grid distribution [1]: sub = 2

        iscf     Eharris(eV)        E_KS(eV)     FreeEng(eV)     dDmax    Ef(eV) dHmax(eV)
   scf:    1    -3325.106534    -3325.568481    -3325.589788  0.313181 -4.150818  1.749189
   scf:    2    -3297.912404    -3316.961011    -3316.966068  0.894011 -3.970047  9.623398
   scf:    3    -3325.986251    -3325.736972    -3325.787686  0.867502 -4.069669  0.473078
   scf:    4    -3325.672164    -3325.735175    -3325.795040  0.106525 -4.082239  0.270425
   scf:    5    -3325.762473    -3325.759636    -3325.812681  0.062307 -4.082933  0.081892
   scf:    6    -3325.757666    -3325.759048    -3325.813433  0.013245 -4.083851  0.029026
   scf:    7    -3325.760625    -3325.760087    -3325.813313  0.009491 -4.084999  0.050232
   scf:    8    -3325.759523    -3325.759845    -3325.813534  0.004114 -4.085574  0.021580
   scf:    9    -3325.759394    -3325.759632    -3325.813580  0.002264 -4.085958  0.005144
   scf:   10    -3325.759602    -3325.759618    -3325.813581  0.000180 -4.086136  0.002830
   scf:   11    -3325.759470    -3325.759545    -3325.813583  0.000688 -4.086297  0.001521
   scf:   12    -3325.759567    -3325.759556    -3325.813583  0.000091 -4.086320  0.000596

SCF Convergence by DM+H criterion
max |DM_out - DM_in|         :     0.0000909089
max |H_out - H_in|      (eV) :     0.0005958673
SCF cycle converged after 12 iterations

Using DM_out to compute the final energy and forces
 E_bs from EDM:  -1187.6189799062415     
No. of atoms with KB's overlaping orbs in proc 0. Max # of overlaps:      38     105

siesta: E_KS(eV) =            -3325.7596

siesta: Atomic forces (eV/Ang):
----------------------------------------
   Tot    0.107892    0.019437   -0.254752
----------------------------------------
   Max    2.401118
   Res    0.873845    sqrt( Sum f_i^2 / 3N )
----------------------------------------
   Max    1.895958    constrained

Stress tensor Voigt[x,y,z,yz,xz,xy] (kbar):      -90.46     -154.15      -60.94        4.18        8.35       -3.91
(Free)E + p*V (eV/cell)    -3268.5931
Target enthalpy (eV/cell)    -3325.8136

siesta: Stress tensor (static) (eV/Ang**3):
        -0.056226   -0.002311    0.005399
        -0.002311   -0.096037    0.002895
         0.005399    0.002895   -0.036936

siesta: Pressure (static):        101.04472393  kBar

siesta: Stress tensor (total) (eV/Ang**3):
        -0.056459   -0.002442    0.005214
        -0.002442   -0.096215    0.002607
         0.005215    0.002607   -0.038033

siesta: Pressure (total):        101.84943149  kBar
 Anneal: Kinetic Energy=    4.7688298525816644E-002
 Anneal: Velocity scale factor =    1.0003193833295549     

siesta: Temp_ion =     295.472 K

                     ====================================
                        Begin MD step =     14
                     ====================================

outcell: Unit cell vectors (Ang):
        7.663480    0.000000    0.000000
        0.000000    7.663480    0.000000
        0.000000    0.000000   15.326960

outcell: Cell vector modules (Ang)   :    7.663480    7.663480   15.326960
outcell: Cell angles (23,13,12) (deg):     90.0000     90.0000     90.0000
outcell: Cell volume (Ang**3)        :    900.1359
Gamma-point calculation with interaction between periodic images
Some features might not work optimally:
e.g. DM initialization from atomic data
<dSpData1D:S at geom step 14
  <sparsity:sparsity for geom step 14
    nrows_g=122 nrows=122 sparsity=.9209 nnzs=13706, refcount: 7>
  <dData1D:(new from dSpData1D) n=13706, refcount: 1>
refcount: 1>
new_DM -- step:    14
Re-using DM from previous geometries...
Number of DMs in history: 1
 DM extrapolation coefficients: 
1   1.00000
New DM after history re-use:
<dSpData2D:SpM extrapolated using coords
  <sparsity:sparsity for geom step 14
    nrows_g=122 nrows=122 sparsity=.9209 nnzs=13706, refcount: 9>
  <dData2D:(temp array for extrapolation) n=13706 m=1, refcount: 1>
refcount: 1>
No. of atoms with KB's overlaping orbs in proc 0. Max # of overlaps:      38     105

InitMesh: MESH = 36 x 36 x 72 = 93312
InitMesh: Mesh cutoff (required, used) =    50.000    60.989 Ry
New grid distribution [1]: sub = 2

        iscf     Eharris(eV)        E_KS(eV)     FreeEng(eV)     dDmax    Ef(eV) dHmax(eV)
   scf:    1    -3325.804695    -3325.786948    -3325.801504  0.180197 -4.113518  1.213545
   scf:    2    -3305.885791    -3319.491676    -3319.493134  0.871193 -4.032379  7.681327
   scf:    3    -3325.598940    -3325.850807    -3325.879314  0.851388 -4.079955  0.383200
   scf:    4    -3325.825353    -3325.855703    -3325.892342  0.077755 -4.081035  0.167733
   scf:    5    -3325.861604    -3325.861114    -3325.897178  0.028113 -4.076675  0.034683
   scf:    6    -3325.860858    -3325.861147    -3325.896799  0.007210 -4.077778  0.061569
   scf:    7    -3325.859957    -3325.860717    -3325.897316  0.007586 -4.078485  0.013856
   scf:    8    -3325.860523    -3325.860621    -3325.897332  0.000595 -4.079026  0.007992
   scf:    9    -3325.860455    -3325.860539    -3325.897337  0.000412 -4.079324  0.004367
   scf:   10    -3325.860391    -3325.860466    -3325.897340  0.000636 -4.079569  0.000432
   scf:   11    -3325.860497    -3325.860482    -3325.897340  0.000118 -4.079614  0.000793
   scf:   12    -3325.860426    -3325.860454    -3325.897340  0.000220 -4.079727  0.000759
   scf:   13    -3325.860474    -3325.860464    -3325.897340  0.000062 -4.079714  0.000220

SCF Convergence by DM+H criterion
max |DM_out - DM_in|         :     0.0000615088
max |H_out - H_in|      (eV) :     0.0002200692
SCF cycle converged after 13 iterations

Using DM_out to compute the final energy and forces
 E_bs from EDM:  -1188.8178856147888     
No. of atoms with KB's overlaping orbs in proc 0. Max # of overlaps:      38     105

siesta: E_KS(eV) =            -3325.8605

siesta: Atomic forces (eV/Ang):
----------------------------------------
   Tot    0.087587    0.022263   -0.280961
----------------------------------------
   Max    2.398306
   Res    0.869940    sqrt( Sum f_i^2 / 3N )
----------------------------------------
   Max    1.991640    constrained

Stress tensor Voigt[x,y,z,yz,xz,xy] (kbar):      -91.25     -152.43      -57.36        3.09        8.60       -4.79
(Free)E + p*V (eV/cell)    -3269.5211
Target enthalpy (eV/cell)    -3325.8973

siesta: Stress tensor (static) (eV/Ang**3):
        -0.056571   -0.002730    0.005516
        -0.002730   -0.094829    0.002176
         0.005516    0.002176   -0.035060

siesta: Pressure (static):         99.58175976  kBar

siesta: Stress tensor (total) (eV/Ang**3):
        -0.056951   -0.002990    0.005369
        -0.002990   -0.095141    0.001929
         0.005369    0.001929   -0.035801

siesta: Pressure (total):        100.34662643  kBar
 Anneal: Kinetic Energy=    5.3518995517130373E-002
 Anneal: Velocity scale factor =   0.99810390939315397     

siesta: Temp_ion =     330.132 K

                     ====================================
                        Begin MD step =     15
                     ====================================

outcell: Unit cell vectors (Ang):
        7.663480    0.000000    0.000000
        0.000000    7.663480    0.000000
        0.000000    0.000000   15.326960

outcell: Cell vector modules (Ang)   :    7.663480    7.663480   15.326960
outcell: Cell angles (23,13,12) (deg):     90.0000     90.0000     90.0000
outcell: Cell volume (Ang**3)        :    900.1359
Gamma-point calculation with interaction between periodic images
Some features might not work optimally:
e.g. DM initialization from atomic data
[...]
   scf:    2    -3327.530877    -3328.031872    -3328.031872  0.049480 -4.225480  1.386482
   scf:    3    -3328.297270    -3328.263962    -3328.263962  0.039343 -4.166022  0.035647
   scf:    4    -3328.264447    -3328.264260    -3328.264260  0.002215 -4.165708  0.025533
   scf:    5    -3328.264396    -3328.264337    -3328.264337  0.001482 -4.165836  0.009055
   scf:    6    -3328.264367    -3328.264353    -3328.264353  0.000686 -4.166184  0.003475
   scf:    7    -3328.264359    -3328.264357    -3328.264357  0.000345 -4.166367  0.001300
   scf:    8    -3328.264357    -3328.264357    -3328.264357  0.000108 -4.166456  0.000571
   scf:    9    -3328.264357    -3328.264357    -3328.264357  0.000044 -4.166480  0.000158

SCF Convergence by DM+H criterion
max |DM_out - DM_in|         :     0.0000441092
max |H_out - H_in|      (eV) :     0.0001576459
SCF cycle converged after 9 iterations

Using DM_out to compute the final energy and forces
 E_bs from EDM:  -1159.7467755684966     
No. of atoms with KB's overlaping orbs in proc 0. Max # of overlaps:      38      97

siesta: E_KS(eV) =            -3328.2644

siesta: Atomic forces (eV/Ang):
----------------------------------------
   Tot    0.085624    0.206332   -0.052170
----------------------------------------
   Max    2.408676
   Res    0.836229    sqrt( Sum f_i^2 / 3N )
----------------------------------------
   Max    1.061417    constrained

Stress tensor Voigt[x,y,z,yz,xz,xy] (kbar):      -64.54     -116.05      -12.87       -4.61       -8.08       -1.69
(Free)E + p*V (eV/cell)    -3292.0347
Target enthalpy (eV/cell)    -3328.2644

siesta: Stress tensor (static) (eV/Ang**3):
        -0.039172   -0.001478   -0.004907
        -0.001477   -0.071837   -0.002689
        -0.004907   -0.002689   -0.007079

siesta: Pressure (static):         63.06672202  kBar

siesta: Stress tensor (total) (eV/Ang**3):
        -0.040280   -0.001055   -0.005044
        -0.001055   -0.072434   -0.002880
        -0.005044   -0.002880   -0.008033

siesta: Pressure (total):         64.48680924  kBar
 Anneal: Kinetic Energy=    9.5329390878430148E-002
 Anneal: Velocity scale factor =   0.99011590044584374     

siesta: Temp_ion =     578.664 K

                     ====================================
                        Begin MD step =     99
                     ====================================

outcell: Unit cell vectors (Ang):
        7.663480    0.000000    0.000000
        0.000000    7.663480    0.000000
        0.000000    0.000000   15.326960

outcell: Cell vector modules (Ang)   :    7.663480    7.663480   15.326960
outcell: Cell angles (23,13,12) (deg):     90.0000     90.0000     90.0000
outcell: Cell volume (Ang**3)        :    900.1359
Gamma-point calculation with interaction between periodic images
Some features might not work optimally:
e.g. DM initialization from atomic data
<dSpData1D:S at geom step 99
  <sparsity:sparsity for geom step 99
    nrows_g=122 nrows=122 sparsity=.8917 nnzs=13272, refcount: 7>
  <dData1D:(new from dSpData1D) n=13272, refcount: 1>
refcount: 1>
new_DM -- step:    99
Re-using DM from previous geometries...
Number of DMs in history: 1
 DM extrapolation coefficients: 
1   1.00000
New DM after history re-use:
<dSpData2D:SpM extrapolated using coords
  <sparsity:sparsity for geom step 99
    nrows_g=122 nrows=122 sparsity=.8917 nnzs=13272, refcount: 9>
  <dData2D:(temp array for extrapolation) n=13272 m=1, refcount: 1>
refcount: 1>
No. of atoms with KB's overlaping orbs in proc 0. Max # of overlaps:      38      97

InitMesh: MESH = 36 x 36 x 72 = 93312
InitMesh: Mesh cutoff (required, used) =    50.000    60.989 Ry
New grid distribution [1]: sub = 2

        iscf     Eharris(eV)        E_KS(eV)     FreeEng(eV)     dDmax    Ef(eV) dHmax(eV)
   scf:    1    -3328.366420    -3328.345288    -3328.345288  0.059055 -4.122898  0.546007
   scf:    2    -3326.179830    -3327.678125    -3327.678125  0.070910 -4.205948  2.129061
   scf:    3    -3328.472536    -3328.374581    -3328.374581  0.057600 -4.144031  0.044494
   scf:    4    -3328.375173    -3328.374952    -3328.374952  0.001822 -4.143097  0.022419
   scf:    5    -3328.375122    -3328.375047    -3328.375047  0.001392 -4.142728  0.012152
   scf:    6    -3328.375091    -3328.375071    -3328.375071  0.000817 -4.142919  0.004749
   scf:    7    -3328.375080    -3328.375076    -3328.375076  0.000486 -4.143069  0.001206
   scf:    8    -3328.375077    -3328.375076    -3328.375076  0.000087 -4.143143  0.000660

SCF Convergence by DM+H criterion
max |DM_out - DM_in|         :     0.0000871506
max |H_out - H_in|      (eV) :     0.0006599865
SCF cycle converged after 8 iterations

Using DM_out to compute the final energy and forces
 E_bs from EDM:  -1160.1485284688615     
No. of atoms with KB's overlaping orbs in proc 0. Max # of overlaps:      38      97

siesta: E_KS(eV) =            -3328.3751

siesta: Atomic forces (eV/Ang):
----------------------------------------
   Tot    0.081632    0.283034   -0.085656
----------------------------------------
   Max    2.407596
   Res    0.841903    sqrt( Sum f_i^2 / 3N )
----------------------------------------
   Max    1.151422    constrained

Stress tensor Voigt[x,y,z,yz,xz,xy] (kbar):      -65.50     -114.89      -12.75       -6.11       -7.43       -1.32
(Free)E + p*V (eV/cell)    -3292.2071
Target enthalpy (eV/cell)    -3328.3751

siesta: Stress tensor (static) (eV/Ang**3):
        -0.039665   -0.001267   -0.004520
        -0.001267   -0.071044   -0.003585
        -0.004520   -0.003585   -0.007027

siesta: Pressure (static):         62.87904084  kBar

siesta: Stress tensor (total) (eV/Ang**3):
        -0.040878   -0.000821   -0.004637
        -0.000821   -0.071707   -0.003812
        -0.004637   -0.003813   -0.007956

siesta: Pressure (total):         64.37698433  kBar
 Anneal: Kinetic Energy=    9.9675141589802396E-002
 Anneal: Velocity scale factor =   0.98966820081627738     

siesta: Temp_ion =     604.497 K

                     ====================================
                        Begin MD step =    100
                     ====================================

outcell: Unit cell vectors (Ang):
        7.663480    0.000000    0.000000
        0.000000    7.663480    0.000000
        0.000000    0.000000   15.326960

outcell: Cell vector modules (Ang)   :    7.663480    7.663480   15.326960
outcell: Cell angles (23,13,12) (deg):     90.0000     90.0000     90.0000
outcell: Cell volume (Ang**3)        :    900.1359
Gamma-point calculation with interaction between periodic images
Some features might not work optimally:
e.g. DM initialization from atomic data
<dSpData1D:S at geom step 100
  <sparsity:sparsity for geom step 100
    nrows_g=122 nrows=122 sparsity=.8972 nnzs=13354, refcount: 7>
  <dData1D:(new from dSpData1D) n=13354, refcount: 1>
refcount: 1>
new_DM -- step:   100
Re-using DM from previous geometries...
Number of DMs in history: 1
 DM extrapolation coefficients: 
1   1.00000
New DM after history re-use:
<dSpData2D:SpM extrapolated using coords
  <sparsity:sparsity for geom step 100
    nrows_g=122 nrows=122 sparsity=.8972 nnzs=13354, refcount: 9>
  <dData2D:(temp array for extrapolation) n=13354 m=1, refcount: 1>
refcount: 1>
No. of atoms with KB's overlaping orbs in proc 0. Max # of overlaps:      38     100

InitMesh: MESH = 36 x 36 x 72 = 93312
InitMesh: Mesh cutoff (required, used) =    50.000    60.989 Ry
New grid distribution [1]: sub = 2

        iscf     Eharris(eV)        E_KS(eV)     FreeEng(eV)     dDmax    Ef(eV) dHmax(eV)
   scf:    1    -3328.336341    -3328.418365    -3328.418365  0.061789 -4.091038  0.758473
   scf:    2    -3323.262239    -3326.823142    -3326.823142  0.099734 -4.169061  3.086166
   scf:    3    -3328.711530    -3328.480531    -3328.480531  0.083898 -4.149006  0.086176
   scf:    4    -3328.481347    -3328.481058    -3328.481058  0.001955 -4.146912  0.028772
   scf:    5    -3328.481256    -3328.481169    -3328.481169  0.001362 -4.145940  0.014483
   scf:    6    -3328.481220    -3328.481196    -3328.481196  0.000791 -4.145992  0.006433
   scf:    7    -3328.481210    -3328.481204    -3328.481204  0.000602 -4.146058  0.000937
   scf:    8    -3328.481205    -3328.481205    -3328.481205  0.000110 -4.146135  0.000760
   scf:    9    -3328.481205    -3328.481205    -3328.481205  0.000033 -4.146148  0.000330

SCF Convergence by DM+H criterion
max |DM_out - DM_in|         :     0.0000334620
max |H_out - H_in|      (eV) :     0.0003296916
SCF cycle converged after 9 iterations

Using DM_out to compute the final energy and forces
 E_bs from EDM:  -1160.8162237258225     
No. of atoms with KB's overlaping orbs in proc 0. Max # of overlaps:      38     100

siesta: E_KS(eV) =            -3328.4812

siesta: Atomic forces (eV/Ang):
----------------------------------------
   Tot    0.090323    0.278588   -0.174060
----------------------------------------
   Max    2.406478
   Res    0.849696    sqrt( Sum f_i^2 / 3N )
----------------------------------------
   Max    1.250273    constrained

Stress tensor Voigt[x,y,z,yz,xz,xy] (kbar):      -66.62     -114.27      -13.04       -7.88       -6.38       -0.92
(Free)E + p*V (eV/cell)    -3292.1646
Target enthalpy (eV/cell)    -3328.4812

siesta: Stress tensor (static) (eV/Ang**3):
        -0.040264   -0.001003   -0.003900
        -0.001003   -0.070585   -0.004649
        -0.003900   -0.004649   -0.007258

siesta: Pressure (static):         63.07684613  kBar

siesta: Stress tensor (total) (eV/Ang**3):
        -0.041580   -0.000573   -0.003982
        -0.000573   -0.071318   -0.004916
        -0.003982   -0.004916   -0.008139

siesta: Pressure (total):         64.64165982  kBar
 Anneal: Kinetic Energy=   0.10320922600397442     
 Anneal: Velocity scale factor =   0.98933178284897083     

siesta: Temp_ion =     625.504 K

outcell: Unit cell vectors (Ang):
        7.663480    0.000000    0.000000
        0.000000    7.663480    0.000000
        0.000000    0.000000   15.326960

outcell: Cell vector modules (Ang)   :    7.663480    7.663480   15.326960
outcell: Cell angles (23,13,12) (deg):     90.0000     90.0000     90.0000
outcell: Cell volume (Ang**3)        :    900.1359

siesta: Program's energy decomposition (eV):
siesta: Ebs     =     -1160.825513
siesta: Eions   =      6039.663214
siesta: Ena     =      2149.643928
siesta: Ekin    =      1223.269926
siesta: Enl     =       463.718616
siesta: Eso     =         0.000000
siesta: Edftu   =         0.000000
siesta: DEna    =        99.169558
siesta: DUscf   =         3.753610
siesta: DUext   =         0.000000
siesta: Ex      =     -1084.040023
siesta: Ec      =      -144.333605
siesta: Exc     =     -1228.373629
siesta: eta*DQ  =         0.000000
siesta: Emadel  =         0.000000
siesta: Emeta   =         0.000000
siesta: Emolmec =         0.000000
siesta: Ekinion =         1.374442
siesta: Eharris =     -3327.106762
siesta: Etot    =     -3327.106762
siesta: FreeEng =     -3327.106762

siesta: Final energy (eV):
siesta:  Band Struct. =   -1160.825513
siesta:       Kinetic =    1223.269926
siesta:       Hartree =    2572.230500
siesta:       Edftu   =       0.000000
siesta:       Eso     =       0.000000
siesta:    Ext. field =       0.000000
siesta:         Exch. =   -1084.040023
siesta:         Corr. =    -144.333605
siesta:   Exch.-corr. =   -1228.373629
siesta:  Ion-electron =   -6229.845432
siesta:       Ion-ion =     334.237429
siesta:       Ekinion =       1.374442
siesta:         Total =   -3327.106762
siesta:         Fermi =      -4.146148

siesta: Atomic forces (eV/Ang):
siesta:      1   -0.163554   -0.210877    0.221294
siesta:      2    0.531314    0.979558   -0.769550
siesta:      3    0.128495    0.301541   -0.268197
siesta:      4    0.147505    0.269783   -0.980412
siesta:      5    0.244038   -1.250273    0.120517
siesta:      6    1.042946    0.188842    0.726858
siesta:      7   -0.532774    1.215317   -0.271267
siesta:      8    0.189948    0.216822    0.392550
siesta:      9   -0.459407   -0.553276   -0.789210
siesta:     10    0.176665   -0.339980    0.265128
siesta:     11   -0.358068   -0.074274    0.001133
siesta:     12   -0.745546   -0.540203    0.102518
siesta:     13   -0.017016    0.175551   -0.032575
siesta:     14   -0.308942    0.228172   -0.277201
siesta:     15   -0.104795    0.077874    0.385636
siesta:     16   -0.004442   -0.259211    0.042015
siesta:     17   -0.195870    0.165761    0.421795
siesta:     18    0.234793    0.117600   -0.121883
siesta:     19    0.012718   -0.353724    0.589112
siesta:     20    0.356123   -0.322761    0.503765
siesta:     21   -0.318799    0.102291    0.456303
siesta:     22    0.143475    0.100623    0.768847
siesta:     23   -0.020306   -0.001780   -0.009202
siesta:     24    0.170239    0.017566   -0.015090
siesta:     25    0.057790    0.080233    0.036258
siesta:     26    0.070138    0.091051    0.140668
siesta:     27   -0.050710   -0.052667    2.406478
siesta:     28   -0.000326    0.020752    2.393034
siesta:     29   -0.056414   -0.115082    2.134357
siesta:     30   -0.095662   -0.060484    2.243222
siesta:     31    0.013577    2.077877   -1.441138
siesta:     32    0.008251   -2.057108   -1.449138
siesta:     33    0.005720    2.060367   -1.426365
siesta:     34   -0.006186   -2.077780   -1.434623
siesta:     35    0.013018    1.883030   -1.220347
siesta:     36   -0.015806   -1.927230   -1.329211
siesta:     37    0.001874    2.046066   -1.383344
siesta:     38   -0.003679   -1.941381   -1.306797
siesta: ----------------------------------------
siesta:    Tot    0.090323    0.278588   -0.174060

siesta: Constrained forces (eV/Ang):
siesta:      1   -0.163554   -0.210877    0.221294
siesta:      2    0.531314    0.979558   -0.769550
siesta:      3    0.128495    0.301541   -0.268197
siesta:      4    0.147505    0.269783   -0.980412
siesta:      5    0.244038   -1.250273    0.120517
siesta:      6    1.042946    0.188842    0.726858
siesta:      7   -0.532774    1.215317   -0.271267
siesta:      8    0.189948    0.216822    0.392550
siesta:      9   -0.459407   -0.553276   -0.789210
siesta:     10    0.176665   -0.339980    0.265128
siesta:     11   -0.358068   -0.074274    0.001133
siesta:     12   -0.745546   -0.540203    0.102518
siesta:     13   -0.017016    0.175551   -0.032575
siesta:     14   -0.308942    0.228172   -0.277201
siesta:     15   -0.104795    0.077874    0.385636
siesta:     16   -0.004442   -0.259211    0.042015
siesta:     17   -0.195870    0.165761    0.421795
siesta:     18    0.234793    0.117600   -0.121883
siesta:     19    0.000000    0.000000    0.000000
siesta:     20    0.000000    0.000000    0.000000
siesta:     21    0.000000    0.000000    0.000000
siesta:     22    0.000000    0.000000    0.000000
siesta:     23    0.000000    0.000000    0.000000
siesta:     24    0.000000    0.000000    0.000000
siesta:     25    0.000000    0.000000    0.000000
siesta:     26    0.000000    0.000000    0.000000
siesta:     27    0.000000    0.000000    0.000000
siesta:     28    0.000000    0.000000    0.000000
siesta:     29    0.000000    0.000000    0.000000
siesta:     30    0.000000    0.000000    0.000000
siesta:     31    0.000000    0.000000    0.000000
siesta:     32    0.000000    0.000000    0.000000
siesta:     33    0.000000    0.000000    0.000000
siesta:     34    0.000000    0.000000    0.000000
siesta:     35    0.000000    0.000000    0.000000
siesta:     36    0.000000    0.000000    0.000000
siesta:     37    0.000000    0.000000    0.000000
siesta:     38    0.000000    0.000000    0.000000
siesta: ----------------------------------------
siesta:  Tot   -0.194711    0.708727   -0.830850

siesta: Stress tensor (static) (eV/Ang**3):
siesta:    -0.040264   -0.001003   -0.003900
siesta:    -0.001003   -0.070585   -0.004649
siesta:    -0.003900   -0.004649   -0.007258

siesta: Cell volume =        900.135895 Ang**3

siesta: Pressure (static):
siesta:                Solid            Molecule  Units
siesta:           0.00042878          0.00031151  Ry/Bohr**3
siesta:           0.03936905          0.02860160  eV/Ang**3
siesta:          63.07684613         45.82531829  kBar
(Free)E+ p_basis*V_orbitals  =       -3319.535277
(Free)Eharris+ p_basis*V_orbitals  =       -3319.535277

cite: Please see "Si001+H2.bib" for an exhaustive BiBTeX file.
cite: Please clearly indicate Siesta version in published work: school--MaX-1.3.0-1
cite: This calculation has made use of the following articles
cite: which are encouraged to be cited in a published work.
        Primary SIESTA paper
          DOI: www.doi.org/10.1088/0953-8984/14/11/302


timer: Elapsed wall time (sec) =     440.918
timer: CPU execution times (sec):

Routine            Calls   Time/call    Tot.time        %
siesta                 1     439.091     439.091   100.00
Setup                  1       0.148       0.148     0.03
bands                  1       0.000       0.000     0.00
KSV_init               1       0.000       0.000     0.00
IterGeom             100       4.389     438.941    99.97
geom_init            100       0.637      63.670    14.50
state_init           100       0.017       1.661     0.38
hsparse              100       0.009       0.862     0.20
overlap              100       0.004       0.422     0.10
Setup_H0             100       0.353      35.260     8.03
naefs                200       0.001       0.100     0.02
dnaefs               100       0.000       0.024     0.01
two-body             100       0.000       0.001     0.00
MolMec               200       0.000       0.001     0.00
kinefsm              200       0.004       0.884     0.20
nlefsm               200       0.038       7.700     1.75
DHSCF_Init           100       0.324      32.436     7.39
DHSCF1               100       0.008       0.778     0.18
INITMESH             100       0.000       0.001     0.00
DHSCF2               100       0.317      31.656     7.21
REMESH               100       0.016       1.638     0.37
REORD               4010       0.000       0.823     0.19
PHION                100       0.219      21.924     4.99
COMM_BSC            5320       0.000       0.885     0.20
POISON              1355       0.014      19.443     4.43
fft                 2710       0.006      16.968     3.86
setup_H             1155       0.271     313.203    71.33
DHSCF               1255       0.304     381.671    86.92
DHSCF3              1255       0.271     340.209    77.48
rhoofd              1255       0.035      43.500     9.91
XC                  1255       0.189     236.713    53.91
GXC-CellXC          1255       0.188     236.101    53.77
gridxc@cellXC       1255       0.188     236.083    53.77
vmat                1255       0.031      39.396     8.97
IterSCF             1055       0.284     300.040    68.33
compute_dm          1055       0.012      12.702     2.89
diagon              1055       0.012      12.625     2.88
r-eigvec            1055       0.007       7.854     1.79
r-buildHS           1055       0.000       0.103     0.02
rdiag               1055       0.007       7.747     1.76
rdiag1              1055       0.000       0.328     0.07
rdiag2              1055       0.001       1.061     0.24
rdiag3              1055       0.005       5.170     1.18
rdiag4              1055       0.001       1.119     0.25
r-buildD            1055       0.004       4.587     1.04
MIXER                955       0.000       0.271     0.06
PostSCF              100       0.750      75.002    17.08
DHSCF4               100       0.415      41.459     9.44
dfscf                100       0.333      33.285     7.58
overfsm              100       0.005       0.465     0.11
state_analysis       100       0.001       0.073     0.02
siesta_move          100       0.001       0.115     0.03
Analysis               1       0.002       0.002     0.00
optical                1       0.000       0.000     0.00
  

>> End of run:  25-JUN-2024  17:11:46
Job completed
